/*--------------------------------*- C++ -*----------------------------------*\
  =========                 |
  \\      /  F ield         | OpenFOAM: The Open Source CFD Toolbox
   \\    /   O peration     | Website:  https://openfoam.org
    \\  /    A nd           | Version:  7
     \\/     M anipulation  |
\*---------------------------------------------------------------------------*/
FoamFile
{
    version     2.0;
    format      ascii;
    class       volScalarField;
    location    "5";
    object      p;
}
// * * * * * * * * * * * * * * * * * * * * * * * * * * * * * * * * * * * * * //

dimensions      [0 2 -2 0 0 0 0];

internalField   nonuniform List<scalar> 
48000
(
1.91044
1.91047
1.91044
1.91035
1.9102
1.90999
1.90973
1.9094
1.90901
1.90856
1.90806
1.90749
1.90686
1.90617
1.90542
1.90461
1.90374
1.90281
1.90183
1.90078
1.89968
1.89852
1.89731
1.89604
1.89472
1.89334
1.89192
1.89044
1.88891
1.88733
1.88571
1.88404
1.88232
1.88056
1.87876
1.87692
1.87504
1.87312
1.87116
1.86917
1.86714
1.86508
1.86299
1.86087
1.85872
1.85655
1.85435
1.85212
1.84987
1.8476
1.8453
1.84299
1.84066
1.83831
1.83594
1.83356
1.83117
1.82877
1.82635
1.82392
1.82148
1.81903
1.81658
1.81411
1.81164
1.80917
1.80669
1.80421
1.80172
1.79923
1.79674
1.79425
1.79176
1.78926
1.78677
1.78428
1.78179
1.7793
1.77681
1.77433
1.77185
1.76937
1.7669
1.76443
1.76196
1.7595
1.75705
1.7546
1.75215
1.74971
1.74728
1.74485
1.74243
1.74001
1.7376
1.73519
1.7328
1.7304
1.72802
1.72564
1.72327
1.7209
1.71854
1.71619
1.71385
1.71151
1.70917
1.70685
1.70453
1.70221
1.69991
1.6976
1.69531
1.69302
1.69074
1.68846
1.68619
1.68392
1.68166
1.67941
1.67716
1.67492
1.67268
1.67044
1.66822
1.66599
1.66377
1.66156
1.65935
1.65715
1.65494
1.65275
1.65056
1.64837
1.64618
1.644
1.64182
1.63965
1.63748
1.63531
1.63315
1.63099
1.62883
1.62667
1.62452
1.62237
1.62022
1.61807
1.61593
1.61379
1.61165
1.60951
1.60738
1.60524
1.60311
1.60098
1.59885
1.59672
1.59459
1.59246
1.59034
1.58821
1.58609
1.58397
1.58184
1.57972
1.5776
1.57548
1.57336
1.57124
1.56911
1.56699
1.56487
1.56275
1.56063
1.55851
1.55639
1.55427
1.55214
1.55002
1.5479
1.54577
1.54365
1.54152
1.53939
1.53727
1.53514
1.53301
1.53088
1.52875
1.52661
1.52448
1.52234
1.52021
1.51807
1.51593
1.51379
1.51165
1.5095
1.50736
1.50521
1.50306
1.50091
1.49876
1.4966
1.49445
1.49229
1.49013
1.48796
1.4858
1.48363
1.48146
1.47929
1.47712
1.47494
1.47277
1.47059
1.4684
1.46622
1.46403
1.46184
1.45965
1.45745
1.45526
1.45306
1.45085
1.44865
1.44644
1.44423
1.44201
1.4398
1.43758
1.43536
1.43313
1.4309
1.42867
1.42643
1.4242
1.42195
1.41971
1.41746
1.41521
1.41296
1.4107
1.40844
1.40617
1.40391
1.40164
1.39936
1.39708
1.3948
1.39252
1.39023
1.38793
1.38564
1.38334
1.38103
1.37872
1.37641
1.3741
1.37178
1.36945
1.36713
1.36479
1.36246
1.36012
1.35777
1.35543
1.35307
1.35072
1.34836
1.34599
1.34362
1.34125
1.33887
1.33648
1.3341
1.3317
1.32931
1.3269
1.3245
1.32209
1.31967
1.31725
1.31483
1.31239
1.30996
1.30752
1.30507
1.30262
1.30017
1.29771
1.29524
1.29277
1.29029
1.28781
1.28533
1.28283
1.28034
1.27783
1.27532
1.27281
1.27029
1.26777
1.26523
1.2627
1.26016
1.25761
1.25505
1.25249
1.24993
1.24736
1.24478
1.2422
1.23961
1.23701
1.23441
1.2318
1.22919
1.22657
1.22394
1.22131
1.21867
1.21602
1.21337
1.21071
1.20805
1.20538
1.2027
1.20002
1.19733
1.19463
1.19192
1.18921
1.1865
1.18377
1.18104
1.1783
1.17556
1.17281
1.17005
1.16728
1.16451
1.16173
1.15894
1.15615
1.15335
1.15054
1.14773
1.1449
1.14207
1.13924
1.13639
1.13354
1.13068
1.12781
1.12494
1.12206
1.11916
1.11627
1.11336
1.11045
1.10753
1.1046
1.10166
1.09871
1.09576
1.09279
1.08982
1.08684
1.08385
1.08086
1.07785
1.07483
1.07181
1.06878
1.06573
1.06268
1.05962
1.05655
1.05347
1.05038
1.04728
1.04417
1.04105
1.03792
1.03478
1.03163
1.02846
1.02529
1.02211
1.01891
1.01571
1.01249
1.00926
1.00602
1.00277
0.99951
0.996236
0.99295
0.989652
0.986341
0.983019
0.979685
0.976338
0.972978
0.969606
0.966222
0.962825
0.959414
0.955991
0.952555
0.949106
0.945644
0.942169
0.93868
0.935178
0.931663
0.928134
0.924591
0.921035
0.917466
0.913882
0.910285
0.906674
0.903049
0.89941
0.895757
0.89209
0.888409
0.884713
0.881004
0.87728
0.873541
0.869789
0.866022
0.86224
0.858444
0.854633
0.850808
0.846967
0.843112
0.839243
0.835358
0.831458
0.827543
0.823614
0.819669
0.815708
0.811733
0.807742
0.803736
0.799715
0.795678
0.791625
0.787557
0.783473
0.779374
0.775258
0.771127
0.76698
0.762817
0.758638
0.754443
0.750231
0.746004
0.74176
0.7375
0.733223
0.72893
0.724621
0.720294
0.715952
0.711592
0.707216
0.702822
0.698412
0.693985
0.689541
0.685079
0.680601
0.676105
0.671592
0.667062
0.662514
0.657948
0.653365
0.648765
0.644146
0.63951
0.634856
0.630184
0.625495
0.620787
0.61606
0.611316
0.606554
0.601773
0.596973
0.592155
0.587319
0.582464
0.57759
0.572698
0.567787
0.562856
0.557907
0.552939
0.547951
0.542945
0.537919
0.532874
0.527809
0.522725
0.517621
0.512497
0.507354
0.502191
0.497008
0.491806
0.486583
0.48134
0.476077
0.470793
0.465489
0.460165
0.45482
0.449455
0.444069
0.438662
0.433235
0.427786
0.422317
0.416826
0.411315
0.405782
0.400228
0.394652
0.389055
0.383436
0.377796
0.372134
0.36645
0.360745
0.355017
0.349267
0.343496
0.337702
0.331885
0.326046
0.320185
0.314301
0.308395
0.302465
0.296513
0.290538
0.28454
0.278519
0.272475
0.266407
0.260316
0.254202
0.248064
0.241902
0.235717
0.229508
0.223275
0.217018
0.210736
0.204431
0.198101
0.191747
0.185369
0.178966
0.172538
0.166085
0.159608
0.153106
0.146578
0.140026
0.133448
0.126845
0.120217
0.113563
0.106883
0.100178
0.0934463
0.0866892
0.0799061
0.0730968
0.0662613
0.0593995
0.0525112
0.0455964
0.038655
0.0316869
0.0246919
0.01767
0.010621
0.00354487
1.91128
1.91131
1.91129
1.9112
1.91105
1.91083
1.91056
1.91022
1.90983
1.90937
1.90885
1.90827
1.90763
1.90692
1.90616
1.90533
1.90445
1.9035
1.9025
1.90143
1.90031
1.89913
1.8979
1.89661
1.89526
1.89386
1.89241
1.89091
1.88936
1.88776
1.88611
1.88442
1.88268
1.8809
1.87908
1.87721
1.87531
1.87336
1.87139
1.86937
1.86733
1.86525
1.86314
1.861
1.85883
1.85663
1.85441
1.85217
1.8499
1.84762
1.84531
1.84298
1.84064
1.83827
1.8359
1.83351
1.8311
1.82868
1.82626
1.82382
1.82137
1.81891
1.81645
1.81398
1.8115
1.80902
1.80654
1.80405
1.80156
1.79907
1.79657
1.79407
1.79158
1.78908
1.78659
1.78409
1.7816
1.77911
1.77662
1.77414
1.77166
1.76918
1.76671
1.76424
1.76177
1.75931
1.75685
1.7544
1.75196
1.74952
1.74709
1.74466
1.74224
1.73982
1.73741
1.73501
1.73262
1.73023
1.72784
1.72547
1.72309
1.72073
1.71837
1.71602
1.71368
1.71134
1.70901
1.70669
1.70437
1.70206
1.69975
1.69745
1.69516
1.69287
1.69059
1.68832
1.68605
1.68378
1.68153
1.67928
1.67703
1.67479
1.67255
1.67032
1.66809
1.66587
1.66366
1.66144
1.65924
1.65703
1.65483
1.65264
1.65045
1.64826
1.64608
1.6439
1.64173
1.63955
1.63738
1.63522
1.63306
1.6309
1.62874
1.62659
1.62443
1.62228
1.62014
1.61799
1.61585
1.61371
1.61157
1.60944
1.6073
1.60517
1.60304
1.60091
1.59878
1.59665
1.59452
1.5924
1.59027
1.58815
1.58603
1.58391
1.58178
1.57966
1.57754
1.57542
1.5733
1.57118
1.56906
1.56694
1.56482
1.5627
1.56058
1.55846
1.55634
1.55422
1.5521
1.54997
1.54785
1.54573
1.5436
1.54148
1.53935
1.53723
1.5351
1.53297
1.53084
1.52871
1.52658
1.52444
1.52231
1.52017
1.51803
1.5159
1.51375
1.51161
1.50947
1.50732
1.50518
1.50303
1.50088
1.49873
1.49657
1.49442
1.49226
1.4901
1.48794
1.48577
1.48361
1.48144
1.47927
1.47709
1.47492
1.47274
1.47056
1.46838
1.4662
1.46401
1.46182
1.45963
1.45743
1.45523
1.45304
1.45083
1.44863
1.44642
1.44421
1.44199
1.43978
1.43756
1.43534
1.43311
1.43088
1.42865
1.42642
1.42418
1.42194
1.41969
1.41745
1.41519
1.41294
1.41068
1.40842
1.40616
1.40389
1.40162
1.39935
1.39707
1.39479
1.3925
1.39021
1.38792
1.38562
1.38332
1.38102
1.37871
1.3764
1.37408
1.37176
1.36944
1.36711
1.36478
1.36245
1.36011
1.35776
1.35541
1.35306
1.35071
1.34834
1.34598
1.34361
1.34124
1.33886
1.33647
1.33409
1.33169
1.3293
1.3269
1.32449
1.32208
1.31966
1.31724
1.31482
1.31239
1.30995
1.30751
1.30507
1.30262
1.30016
1.2977
1.29523
1.29276
1.29029
1.28781
1.28532
1.28283
1.28033
1.27783
1.27532
1.2728
1.27028
1.26776
1.26523
1.26269
1.26015
1.2576
1.25505
1.25249
1.24992
1.24735
1.24477
1.24219
1.2396
1.23701
1.2344
1.2318
1.22918
1.22656
1.22394
1.2213
1.21866
1.21602
1.21337
1.21071
1.20804
1.20537
1.2027
1.20001
1.19732
1.19462
1.19192
1.18921
1.18649
1.18377
1.18104
1.1783
1.17555
1.1728
1.17004
1.16728
1.16451
1.16173
1.15894
1.15615
1.15335
1.15054
1.14772
1.1449
1.14207
1.13923
1.13639
1.13354
1.13068
1.12781
1.12493
1.12205
1.11916
1.11626
1.11336
1.11044
1.10752
1.10459
1.10165
1.09871
1.09575
1.09279
1.08982
1.08684
1.08385
1.08085
1.07785
1.07483
1.07181
1.06877
1.06573
1.06268
1.05962
1.05655
1.05347
1.05038
1.04728
1.04417
1.04105
1.03792
1.03478
1.03162
1.02846
1.02529
1.02211
1.01891
1.01571
1.01249
1.00926
1.00602
1.00277
0.999509
0.996235
0.992949
0.989651
0.986341
0.983019
0.979684
0.976337
0.972978
0.969606
0.966222
0.962824
0.959414
0.955991
0.952555
0.949106
0.945644
0.942169
0.93868
0.935178
0.931663
0.928134
0.924591
0.921035
0.917466
0.913882
0.910285
0.906674
0.903049
0.89941
0.895757
0.89209
0.888409
0.884713
0.881004
0.87728
0.873541
0.869789
0.866022
0.86224
0.858444
0.854633
0.850808
0.846967
0.843112
0.839243
0.835358
0.831458
0.827543
0.823614
0.819669
0.815708
0.811733
0.807742
0.803736
0.799715
0.795678
0.791625
0.787557
0.783473
0.779374
0.775258
0.771127
0.76698
0.762817
0.758638
0.754443
0.750231
0.746004
0.74176
0.7375
0.733223
0.72893
0.724621
0.720294
0.715952
0.711592
0.707216
0.702822
0.698412
0.693985
0.689541
0.685079
0.680601
0.676105
0.671592
0.667062
0.662514
0.657948
0.653365
0.648765
0.644146
0.63951
0.634856
0.630184
0.625495
0.620787
0.61606
0.611316
0.606554
0.601773
0.596973
0.592155
0.587319
0.582464
0.57759
0.572698
0.567787
0.562856
0.557907
0.552939
0.547951
0.542945
0.537919
0.532874
0.527809
0.522725
0.517621
0.512497
0.507354
0.502191
0.497008
0.491806
0.486583
0.48134
0.476077
0.470793
0.465489
0.460165
0.45482
0.449455
0.444069
0.438662
0.433235
0.427786
0.422317
0.416826
0.411315
0.405782
0.400228
0.394652
0.389055
0.383436
0.377796
0.372134
0.36645
0.360745
0.355017
0.349267
0.343496
0.337702
0.331885
0.326046
0.320185
0.314301
0.308395
0.302465
0.296513
0.290538
0.28454
0.278519
0.272475
0.266407
0.260316
0.254202
0.248064
0.241902
0.235717
0.229508
0.223275
0.217018
0.210736
0.204431
0.198101
0.191747
0.185369
0.178966
0.172538
0.166085
0.159608
0.153106
0.146578
0.140026
0.133448
0.126845
0.120217
0.113563
0.106883
0.100178
0.0934463
0.0866892
0.0799061
0.0730968
0.0662613
0.0593995
0.0525112
0.0455964
0.038655
0.0316869
0.0246919
0.01767
0.010621
0.00354487
1.91289
1.91292
1.9129
1.91281
1.91265
1.91242
1.91214
1.91179
1.91138
1.9109
1.91036
1.90976
1.90909
1.90836
1.90757
1.90671
1.90579
1.90481
1.90377
1.90267
1.90151
1.90029
1.89901
1.89768
1.89629
1.89485
1.89335
1.89181
1.89021
1.88857
1.88687
1.88514
1.88335
1.88153
1.87966
1.87775
1.8758
1.87382
1.8718
1.86975
1.86766
1.86554
1.8634
1.86122
1.85902
1.85679
1.85454
1.85226
1.84997
1.84765
1.84531
1.84296
1.84059
1.8382
1.8358
1.83339
1.83096
1.82852
1.82608
1.82362
1.82116
1.81869
1.81621
1.81373
1.81124
1.80874
1.80625
1.80375
1.80125
1.79875
1.79625
1.79374
1.79124
1.78874
1.78624
1.78374
1.78125
1.77875
1.77626
1.77378
1.77129
1.76881
1.76634
1.76387
1.7614
1.75894
1.75649
1.75404
1.7516
1.74916
1.74673
1.7443
1.74188
1.73947
1.73707
1.73467
1.73227
1.72989
1.72751
1.72513
1.72277
1.72041
1.71805
1.71571
1.71337
1.71103
1.70871
1.70639
1.70407
1.70176
1.69946
1.69717
1.69488
1.6926
1.69032
1.68805
1.68579
1.68353
1.68127
1.67902
1.67678
1.67454
1.67231
1.67009
1.66786
1.66565
1.66343
1.66123
1.65902
1.65682
1.65463
1.65244
1.65025
1.64807
1.64589
1.64371
1.64154
1.63937
1.6372
1.63504
1.63288
1.63073
1.62857
1.62642
1.62427
1.62213
1.61998
1.61784
1.6157
1.61356
1.61143
1.6093
1.60716
1.60503
1.6029
1.60078
1.59865
1.59652
1.5944
1.59228
1.59015
1.58803
1.58591
1.58379
1.58167
1.57955
1.57743
1.57532
1.5732
1.57108
1.56896
1.56684
1.56472
1.56261
1.56049
1.55837
1.55625
1.55413
1.55201
1.54989
1.54777
1.54564
1.54352
1.5414
1.53927
1.53715
1.53502
1.53289
1.53077
1.52864
1.5265
1.52437
1.52224
1.5201
1.51797
1.51583
1.51369
1.51155
1.50941
1.50726
1.50512
1.50297
1.50082
1.49867
1.49651
1.49436
1.4922
1.49004
1.48788
1.48572
1.48355
1.48139
1.47922
1.47704
1.47487
1.47269
1.47051
1.46833
1.46615
1.46396
1.46177
1.45958
1.45739
1.45519
1.45299
1.45079
1.44859
1.44638
1.44417
1.44196
1.43974
1.43752
1.4353
1.43307
1.43085
1.42862
1.42638
1.42414
1.4219
1.41966
1.41741
1.41516
1.41291
1.41065
1.40839
1.40613
1.40386
1.40159
1.39932
1.39704
1.39476
1.39247
1.39019
1.38789
1.3856
1.3833
1.38099
1.37869
1.37638
1.37406
1.37174
1.36942
1.36709
1.36476
1.36242
1.36008
1.35774
1.35539
1.35304
1.35068
1.34832
1.34596
1.34359
1.34122
1.33884
1.33645
1.33407
1.33168
1.32928
1.32688
1.32447
1.32206
1.31965
1.31723
1.3148
1.31237
1.30993
1.30749
1.30505
1.3026
1.30014
1.29768
1.29522
1.29275
1.29027
1.28779
1.2853
1.28281
1.28032
1.27781
1.2753
1.27279
1.27027
1.26775
1.26522
1.26268
1.26014
1.25759
1.25504
1.25248
1.24991
1.24734
1.24476
1.24218
1.23959
1.237
1.23439
1.23179
1.22917
1.22655
1.22393
1.22129
1.21865
1.21601
1.21336
1.2107
1.20804
1.20536
1.20269
1.2
1.19731
1.19462
1.19191
1.1892
1.18648
1.18376
1.18103
1.17829
1.17555
1.17279
1.17004
1.16727
1.1645
1.16172
1.15893
1.15614
1.15334
1.15053
1.14772
1.14489
1.14206
1.13923
1.13638
1.13353
1.13067
1.1278
1.12493
1.12205
1.11916
1.11626
1.11335
1.11044
1.10752
1.10459
1.10165
1.0987
1.09575
1.09279
1.08981
1.08683
1.08385
1.08085
1.07784
1.07483
1.0718
1.06877
1.06573
1.06268
1.05962
1.05654
1.05346
1.05037
1.04727
1.04416
1.04104
1.03791
1.03477
1.03162
1.02846
1.02529
1.0221
1.01891
1.0157
1.01249
1.00926
1.00602
1.00277
0.999508
0.996234
0.992948
0.98965
0.98634
0.983018
0.979684
0.976337
0.972978
0.969606
0.966221
0.962824
0.959414
0.955991
0.952555
0.949106
0.945644
0.942169
0.93868
0.935178
0.931663
0.928134
0.924591
0.921035
0.917466
0.913882
0.910285
0.906674
0.903049
0.89941
0.895757
0.89209
0.888409
0.884713
0.881004
0.87728
0.873541
0.869789
0.866022
0.86224
0.858444
0.854633
0.850808
0.846967
0.843112
0.839243
0.835358
0.831458
0.827543
0.823614
0.819669
0.815708
0.811733
0.807742
0.803736
0.799715
0.795678
0.791625
0.787557
0.783473
0.779374
0.775258
0.771127
0.76698
0.762817
0.758638
0.754443
0.750231
0.746004
0.74176
0.7375
0.733223
0.72893
0.724621
0.720294
0.715952
0.711592
0.707216
0.702822
0.698412
0.693985
0.689541
0.685079
0.680601
0.676105
0.671592
0.667062
0.662514
0.657948
0.653365
0.648765
0.644146
0.63951
0.634856
0.630184
0.625495
0.620787
0.61606
0.611316
0.606554
0.601773
0.596973
0.592155
0.587319
0.582464
0.57759
0.572698
0.567787
0.562856
0.557907
0.552939
0.547951
0.542945
0.537919
0.532874
0.527809
0.522725
0.517621
0.512497
0.507354
0.502191
0.497008
0.491806
0.486583
0.48134
0.476077
0.470793
0.465489
0.460165
0.45482
0.449455
0.444069
0.438662
0.433235
0.427786
0.422317
0.416826
0.411315
0.405782
0.400228
0.394652
0.389055
0.383436
0.377796
0.372134
0.36645
0.360745
0.355017
0.349267
0.343496
0.337702
0.331885
0.326046
0.320185
0.314301
0.308395
0.302465
0.296513
0.290538
0.28454
0.278519
0.272475
0.266407
0.260316
0.254202
0.248064
0.241902
0.235717
0.229508
0.223275
0.217018
0.210736
0.204431
0.198101
0.191747
0.185369
0.178966
0.172538
0.166085
0.159608
0.153106
0.146578
0.140026
0.133448
0.126845
0.120217
0.113563
0.106883
0.100178
0.0934463
0.0866892
0.0799061
0.0730968
0.0662613
0.0593995
0.0525112
0.0455964
0.038655
0.0316869
0.0246919
0.01767
0.010621
0.00354487
1.9152
1.91524
1.91521
1.91511
1.91494
1.91471
1.9144
1.91404
1.9136
1.9131
1.91253
1.91189
1.91118
1.91041
1.90957
1.90867
1.9077
1.90667
1.90558
1.90442
1.9032
1.90192
1.90059
1.89919
1.89774
1.89624
1.89468
1.89307
1.89141
1.8897
1.88794
1.88614
1.88429
1.8824
1.88047
1.8785
1.87649
1.87445
1.87237
1.87026
1.86812
1.86595
1.86375
1.86152
1.85927
1.85699
1.85469
1.85237
1.85003
1.84767
1.8453
1.84291
1.8405
1.83808
1.83565
1.8332
1.83075
1.82828
1.82581
1.82333
1.82084
1.81835
1.81585
1.81335
1.81085
1.80834
1.80583
1.80332
1.8008
1.79829
1.79578
1.79327
1.79076
1.78825
1.78574
1.78324
1.78074
1.77824
1.77575
1.77326
1.77077
1.76829
1.76582
1.76335
1.76088
1.75842
1.75597
1.75352
1.75108
1.74865
1.74622
1.7438
1.74138
1.73897
1.73657
1.73418
1.73179
1.72941
1.72703
1.72466
1.7223
1.71995
1.7176
1.71526
1.71292
1.7106
1.70828
1.70596
1.70365
1.70135
1.69906
1.69677
1.69449
1.69221
1.68994
1.68767
1.68541
1.68316
1.68091
1.67867
1.67643
1.6742
1.67198
1.66976
1.66754
1.66533
1.66312
1.66092
1.65872
1.65653
1.65434
1.65215
1.64997
1.64779
1.64562
1.64345
1.64128
1.63911
1.63695
1.6348
1.63264
1.63049
1.62834
1.62619
1.62405
1.62191
1.61977
1.61763
1.61549
1.61336
1.61123
1.6091
1.60697
1.60484
1.60272
1.60059
1.59847
1.59635
1.59423
1.59211
1.58999
1.58787
1.58575
1.58363
1.58152
1.5794
1.57728
1.57517
1.57305
1.57094
1.56882
1.56671
1.56459
1.56247
1.56036
1.55824
1.55612
1.55401
1.55189
1.54977
1.54765
1.54553
1.54341
1.54129
1.53916
1.53704
1.53492
1.53279
1.53066
1.52853
1.52641
1.52427
1.52214
1.52001
1.51787
1.51574
1.5136
1.51146
1.50932
1.50718
1.50503
1.50289
1.50074
1.49859
1.49644
1.49428
1.49213
1.48997
1.48781
1.48565
1.48348
1.48132
1.47915
1.47698
1.4748
1.47263
1.47045
1.46827
1.46609
1.4639
1.46171
1.45952
1.45733
1.45514
1.45294
1.45074
1.44853
1.44633
1.44412
1.4419
1.43969
1.43747
1.43525
1.43302
1.4308
1.42857
1.42633
1.4241
1.42186
1.41961
1.41737
1.41512
1.41287
1.41061
1.40835
1.40609
1.40382
1.40155
1.39928
1.397
1.39472
1.39244
1.39015
1.38786
1.38556
1.38326
1.38096
1.37865
1.37634
1.37403
1.37171
1.36939
1.36706
1.36473
1.36239
1.36005
1.35771
1.35536
1.35301
1.35066
1.3483
1.34593
1.34356
1.34119
1.33881
1.33643
1.33404
1.33165
1.32925
1.32685
1.32445
1.32204
1.31962
1.3172
1.31478
1.31235
1.30991
1.30747
1.30503
1.30258
1.30012
1.29766
1.2952
1.29273
1.29025
1.28777
1.28529
1.28279
1.2803
1.27779
1.27529
1.27277
1.27025
1.26773
1.2652
1.26266
1.26012
1.25757
1.25502
1.25246
1.2499
1.24732
1.24475
1.24216
1.23958
1.23698
1.23438
1.23177
1.22916
1.22654
1.22391
1.22128
1.21864
1.216
1.21335
1.21069
1.20802
1.20535
1.20268
1.19999
1.1973
1.1946
1.1919
1.18919
1.18647
1.18375
1.18102
1.17828
1.17554
1.17278
1.17003
1.16726
1.16449
1.16171
1.15892
1.15613
1.15333
1.15052
1.14771
1.14488
1.14205
1.13922
1.13637
1.13352
1.13066
1.12779
1.12492
1.12204
1.11915
1.11625
1.11334
1.11043
1.10751
1.10458
1.10164
1.0987
1.09574
1.09278
1.08981
1.08683
1.08384
1.08084
1.07784
1.07482
1.0718
1.06877
1.06572
1.06267
1.05961
1.05654
1.05346
1.05037
1.04727
1.04416
1.04104
1.03791
1.03477
1.03162
1.02846
1.02529
1.0221
1.01891
1.0157
1.01249
1.00926
1.00602
1.00277
0.999507
0.996233
0.992947
0.989649
0.986339
0.983017
0.979683
0.976336
0.972977
0.969605
0.966221
0.962824
0.959414
0.955991
0.952555
0.949106
0.945644
0.942169
0.93868
0.935178
0.931663
0.928134
0.924591
0.921035
0.917466
0.913882
0.910285
0.906674
0.903049
0.89941
0.895757
0.89209
0.888409
0.884713
0.881004
0.87728
0.873541
0.869789
0.866022
0.86224
0.858444
0.854633
0.850808
0.846967
0.843112
0.839243
0.835358
0.831458
0.827543
0.823614
0.819669
0.815708
0.811733
0.807742
0.803736
0.799715
0.795678
0.791625
0.787557
0.783473
0.779374
0.775258
0.771127
0.76698
0.762817
0.758638
0.754443
0.750231
0.746004
0.74176
0.7375
0.733223
0.72893
0.724621
0.720294
0.715952
0.711592
0.707216
0.702822
0.698412
0.693985
0.689541
0.685079
0.680601
0.676105
0.671592
0.667062
0.662514
0.657948
0.653365
0.648765
0.644146
0.63951
0.634856
0.630184
0.625495
0.620787
0.61606
0.611316
0.606554
0.601773
0.596973
0.592155
0.587319
0.582464
0.57759
0.572698
0.567787
0.562856
0.557907
0.552939
0.547951
0.542945
0.537919
0.532874
0.527809
0.522725
0.517621
0.512497
0.507354
0.502191
0.497008
0.491806
0.486583
0.48134
0.476077
0.470793
0.465489
0.460165
0.45482
0.449455
0.444069
0.438662
0.433235
0.427786
0.422317
0.416826
0.411315
0.405782
0.400228
0.394652
0.389055
0.383436
0.377796
0.372134
0.36645
0.360745
0.355017
0.349267
0.343496
0.337702
0.331885
0.326046
0.320185
0.314301
0.308395
0.302465
0.296513
0.290538
0.28454
0.278519
0.272475
0.266407
0.260316
0.254202
0.248064
0.241902
0.235717
0.229508
0.223275
0.217018
0.210736
0.204431
0.198101
0.191747
0.185369
0.178966
0.172538
0.166085
0.159608
0.153106
0.146578
0.140026
0.133448
0.126845
0.120217
0.113563
0.106883
0.100178
0.0934463
0.0866892
0.0799061
0.0730968
0.0662613
0.0593995
0.0525112
0.0455964
0.038655
0.0316869
0.0246919
0.01767
0.010621
0.00354487
1.91817
1.9182
1.91817
1.91807
1.91788
1.91763
1.91731
1.91691
1.91644
1.9159
1.91529
1.91461
1.91385
1.91303
1.91214
1.91117
1.91014
1.90904
1.90787
1.90664
1.90535
1.904
1.90258
1.90111
1.89957
1.89798
1.89634
1.89465
1.8929
1.89111
1.88927
1.88738
1.88545
1.88348
1.88147
1.87942
1.87733
1.87521
1.87306
1.87088
1.86867
1.86642
1.86416
1.86187
1.85955
1.85721
1.85486
1.85248
1.85009
1.84768
1.84525
1.84281
1.84036
1.8379
1.83543
1.83295
1.83045
1.82796
1.82545
1.82294
1.82043
1.81791
1.81539
1.81286
1.81033
1.80781
1.80528
1.80275
1.80022
1.7977
1.79517
1.79265
1.79013
1.78761
1.7851
1.78259
1.78008
1.77758
1.77509
1.77259
1.77011
1.76763
1.76515
1.76268
1.76022
1.75776
1.75531
1.75287
1.75043
1.748
1.74557
1.74316
1.74075
1.73834
1.73595
1.73356
1.73117
1.7288
1.72643
1.72407
1.72171
1.71937
1.71703
1.71469
1.71237
1.71005
1.70773
1.70543
1.70313
1.70083
1.69855
1.69626
1.69399
1.69172
1.68946
1.6872
1.68495
1.6827
1.68046
1.67823
1.676
1.67378
1.67156
1.66934
1.66714
1.66493
1.66273
1.66054
1.65834
1.65616
1.65397
1.65179
1.64962
1.64745
1.64528
1.64312
1.64095
1.6388
1.63664
1.63449
1.63234
1.63019
1.62805
1.62591
1.62377
1.62163
1.6195
1.61737
1.61524
1.61311
1.61098
1.60885
1.60673
1.60461
1.60249
1.60037
1.59825
1.59613
1.59401
1.5919
1.58978
1.58767
1.58555
1.58344
1.58133
1.57921
1.5771
1.57499
1.57287
1.57076
1.56865
1.56654
1.56442
1.56231
1.5602
1.55808
1.55597
1.55386
1.55174
1.54962
1.54751
1.54539
1.54327
1.54115
1.53903
1.53691
1.53479
1.53266
1.53054
1.52841
1.52629
1.52416
1.52203
1.5199
1.51776
1.51563
1.51349
1.51135
1.50922
1.50707
1.50493
1.50279
1.50064
1.49849
1.49634
1.49419
1.49204
1.48988
1.48772
1.48556
1.4834
1.48123
1.47906
1.4769
1.47472
1.47255
1.47037
1.46819
1.46601
1.46383
1.46164
1.45945
1.45726
1.45507
1.45287
1.45067
1.44847
1.44626
1.44405
1.44184
1.43963
1.43741
1.43519
1.43297
1.43074
1.42851
1.42628
1.42404
1.4218
1.41956
1.41732
1.41507
1.41282
1.41056
1.4083
1.40604
1.40377
1.4015
1.39923
1.39696
1.39468
1.39239
1.3901
1.38781
1.38552
1.38322
1.38092
1.37861
1.3763
1.37399
1.37167
1.36935
1.36702
1.36469
1.36236
1.36002
1.35768
1.35533
1.35298
1.35062
1.34826
1.3459
1.34353
1.34116
1.33878
1.3364
1.33401
1.33162
1.32922
1.32682
1.32442
1.32201
1.31959
1.31717
1.31475
1.31232
1.30989
1.30745
1.305
1.30255
1.3001
1.29764
1.29518
1.29271
1.29023
1.28775
1.28526
1.28277
1.28028
1.27777
1.27527
1.27275
1.27023
1.26771
1.26518
1.26264
1.2601
1.25755
1.255
1.25244
1.24988
1.24731
1.24473
1.24215
1.23956
1.23696
1.23436
1.23176
1.22914
1.22652
1.2239
1.22126
1.21863
1.21598
1.21333
1.21067
1.20801
1.20534
1.20266
1.19998
1.19729
1.19459
1.19189
1.18918
1.18646
1.18374
1.181
1.17827
1.17552
1.17277
1.17001
1.16725
1.16448
1.1617
1.15891
1.15612
1.15332
1.15051
1.14769
1.14487
1.14204
1.13921
1.13636
1.13351
1.13065
1.12778
1.12491
1.12203
1.11914
1.11624
1.11334
1.11042
1.1075
1.10457
1.10163
1.09869
1.09573
1.09277
1.0898
1.08682
1.08383
1.08084
1.07783
1.07482
1.07179
1.06876
1.06572
1.06267
1.05961
1.05654
1.05346
1.05037
1.04727
1.04416
1.04104
1.03791
1.03477
1.03162
1.02845
1.02528
1.0221
1.01891
1.0157
1.01248
1.00926
1.00602
1.00277
0.999505
0.996232
0.992946
0.989648
0.986338
0.983016
0.979682
0.976335
0.972976
0.969605
0.96622
0.962823
0.959413
0.95599
0.952555
0.949106
0.945644
0.942168
0.93868
0.935178
0.931663
0.928134
0.924591
0.921035
0.917466
0.913882
0.910285
0.906674
0.903049
0.89941
0.895757
0.89209
0.888409
0.884713
0.881004
0.87728
0.873541
0.869789
0.866022
0.86224
0.858444
0.854633
0.850808
0.846967
0.843112
0.839243
0.835358
0.831458
0.827543
0.823614
0.819669
0.815708
0.811733
0.807742
0.803736
0.799715
0.795678
0.791625
0.787557
0.783473
0.779374
0.775258
0.771127
0.76698
0.762817
0.758638
0.754443
0.750231
0.746004
0.74176
0.7375
0.733223
0.72893
0.724621
0.720294
0.715952
0.711592
0.707216
0.702822
0.698412
0.693985
0.689541
0.685079
0.680601
0.676105
0.671592
0.667062
0.662514
0.657948
0.653365
0.648765
0.644146
0.63951
0.634856
0.630184
0.625495
0.620787
0.61606
0.611316
0.606554
0.601773
0.596973
0.592155
0.587319
0.582464
0.57759
0.572698
0.567787
0.562856
0.557907
0.552939
0.547951
0.542945
0.537919
0.532874
0.527809
0.522725
0.517621
0.512497
0.507354
0.502191
0.497008
0.491806
0.486583
0.48134
0.476077
0.470793
0.465489
0.460165
0.45482
0.449455
0.444069
0.438662
0.433235
0.427786
0.422317
0.416826
0.411315
0.405782
0.400228
0.394652
0.389055
0.383436
0.377796
0.372134
0.36645
0.360745
0.355017
0.349267
0.343496
0.337702
0.331885
0.326046
0.320185
0.314301
0.308395
0.302465
0.296513
0.290538
0.28454
0.278519
0.272475
0.266407
0.260316
0.254202
0.248064
0.241902
0.235717
0.229508
0.223275
0.217018
0.210736
0.204431
0.198101
0.191747
0.185369
0.178966
0.172538
0.166085
0.159608
0.153106
0.146578
0.140026
0.133448
0.126845
0.120217
0.113563
0.106883
0.100178
0.0934463
0.0866892
0.0799061
0.0730968
0.0662613
0.0593995
0.0525112
0.0455964
0.038655
0.0316869
0.0246919
0.01767
0.010621
0.00354487
1.92175
1.92179
1.92176
1.92164
1.92144
1.92117
1.92081
1.92038
1.91988
1.91929
1.91863
1.91789
1.91707
1.91618
1.91521
1.91417
1.91305
1.91187
1.91062
1.90929
1.90791
1.90646
1.90494
1.90337
1.90173
1.90004
1.8983
1.8965
1.89465
1.89275
1.89081
1.88882
1.88679
1.88472
1.88261
1.88047
1.87829
1.87608
1.87383
1.87156
1.86926
1.86694
1.86459
1.86223
1.85984
1.85743
1.855
1.85256
1.85011
1.84764
1.84515
1.84266
1.84016
1.83765
1.83513
1.8326
1.83007
1.82753
1.82499
1.82245
1.8199
1.81735
1.8148
1.81225
1.8097
1.80715
1.80461
1.80206
1.79952
1.79697
1.79444
1.7919
1.78937
1.78685
1.78433
1.78181
1.7793
1.77679
1.77429
1.7718
1.76931
1.76683
1.76435
1.76189
1.75943
1.75697
1.75452
1.75208
1.74965
1.74722
1.7448
1.74239
1.73999
1.73759
1.7352
1.73282
1.73045
1.72808
1.72572
1.72337
1.72102
1.71868
1.71635
1.71403
1.71171
1.7094
1.70709
1.7048
1.70251
1.70022
1.69794
1.69567
1.69341
1.69115
1.6889
1.68665
1.68441
1.68217
1.67994
1.67771
1.67549
1.67328
1.67107
1.66886
1.66666
1.66447
1.66228
1.66009
1.65791
1.65573
1.65355
1.65138
1.64921
1.64705
1.64489
1.64273
1.64058
1.63843
1.63628
1.63414
1.63199
1.62985
1.62772
1.62558
1.62345
1.62132
1.61919
1.61706
1.61494
1.61282
1.61069
1.60857
1.60646
1.60434
1.60222
1.60011
1.59799
1.59588
1.59377
1.59166
1.58955
1.58744
1.58533
1.58322
1.58111
1.579
1.57689
1.57478
1.57267
1.57056
1.56846
1.56635
1.56424
1.56213
1.56002
1.55791
1.5558
1.55368
1.55157
1.54946
1.54735
1.54523
1.54311
1.541
1.53888
1.53676
1.53464
1.53252
1.5304
1.52828
1.52615
1.52402
1.5219
1.51977
1.51764
1.5155
1.51337
1.51123
1.5091
1.50696
1.50482
1.50267
1.50053
1.49838
1.49624
1.49408
1.49193
1.48978
1.48762
1.48546
1.4833
1.48114
1.47897
1.4768
1.47463
1.47246
1.47029
1.46811
1.46593
1.46375
1.46156
1.45937
1.45718
1.45499
1.45279
1.45059
1.44839
1.44619
1.44398
1.44177
1.43956
1.43734
1.43512
1.4329
1.43067
1.42845
1.42621
1.42398
1.42174
1.4195
1.41726
1.41501
1.41276
1.4105
1.40825
1.40598
1.40372
1.40145
1.39918
1.3969
1.39462
1.39234
1.39006
1.38777
1.38547
1.38317
1.38087
1.37857
1.37626
1.37394
1.37163
1.3693
1.36698
1.36465
1.36232
1.35998
1.35764
1.35529
1.35294
1.35059
1.34823
1.34586
1.34349
1.34112
1.33875
1.33636
1.33398
1.33159
1.32919
1.32679
1.32439
1.32198
1.31956
1.31714
1.31472
1.31229
1.30986
1.30742
1.30498
1.30253
1.30007
1.29761
1.29515
1.29268
1.2902
1.28772
1.28524
1.28275
1.28025
1.27775
1.27524
1.27273
1.27021
1.26769
1.26516
1.26262
1.26008
1.25753
1.25498
1.25242
1.24986
1.24729
1.24471
1.24213
1.23954
1.23694
1.23434
1.23174
1.22912
1.2265
1.22388
1.22125
1.21861
1.21596
1.21331
1.21066
1.20799
1.20532
1.20265
1.19996
1.19727
1.19457
1.19187
1.18916
1.18644
1.18372
1.18099
1.17825
1.17551
1.17276
1.17
1.16724
1.16446
1.16168
1.1589
1.15611
1.1533
1.1505
1.14768
1.14486
1.14203
1.1392
1.13635
1.1335
1.13064
1.12777
1.1249
1.12202
1.11913
1.11623
1.11333
1.11041
1.10749
1.10456
1.10163
1.09868
1.09573
1.09276
1.08979
1.08681
1.08383
1.08083
1.07782
1.07481
1.07179
1.06875
1.06571
1.06266
1.0596
1.05653
1.05345
1.05036
1.04726
1.04415
1.04103
1.0379
1.03476
1.03161
1.02845
1.02528
1.0221
1.0189
1.0157
1.01248
1.00925
1.00602
1.00277
0.999504
0.99623
0.992944
0.989647
0.986337
0.983015
0.979681
0.976335
0.972976
0.969604
0.96622
0.962823
0.959413
0.95599
0.952554
0.949105
0.945643
0.942168
0.93868
0.935178
0.931662
0.928134
0.924591
0.921035
0.917466
0.913882
0.910285
0.906674
0.903049
0.89941
0.895757
0.89209
0.888409
0.884713
0.881004
0.87728
0.873542
0.869789
0.866022
0.86224
0.858444
0.854633
0.850808
0.846967
0.843112
0.839243
0.835358
0.831458
0.827543
0.823614
0.819669
0.815708
0.811733
0.807742
0.803736
0.799715
0.795678
0.791625
0.787557
0.783473
0.779374
0.775258
0.771127
0.76698
0.762817
0.758638
0.754443
0.750231
0.746004
0.74176
0.7375
0.733223
0.72893
0.724621
0.720294
0.715952
0.711592
0.707216
0.702822
0.698412
0.693985
0.689541
0.685079
0.680601
0.676105
0.671592
0.667062
0.662514
0.657948
0.653365
0.648765
0.644146
0.63951
0.634856
0.630184
0.625495
0.620787
0.61606
0.611316
0.606554
0.601773
0.596973
0.592155
0.587319
0.582464
0.57759
0.572698
0.567787
0.562856
0.557907
0.552939
0.547951
0.542945
0.537919
0.532874
0.527809
0.522725
0.517621
0.512497
0.507354
0.502191
0.497008
0.491806
0.486583
0.48134
0.476077
0.470793
0.465489
0.460165
0.45482
0.449455
0.444069
0.438662
0.433235
0.427786
0.422317
0.416826
0.411315
0.405782
0.400228
0.394652
0.389055
0.383436
0.377796
0.372134
0.36645
0.360745
0.355017
0.349267
0.343496
0.337702
0.331885
0.326046
0.320185
0.314301
0.308395
0.302465
0.296513
0.290538