/*--------------------------------*- C++ -*----------------------------------*\
  =========                 |
  \\      /  F ield         | OpenFOAM: The Open Source CFD Toolbox
   \\    /   O peration     | Website:  https://openfoam.org
    \\  /    A nd           | Version:  7
     \\/     M anipulation  |
\*---------------------------------------------------------------------------*/
FoamFile
{
    version     2.0;
    format      ascii;
    class       surfaceScalarField;
    location    "5";
    object      phi;
}
// * * * * * * * * * * * * * * * * * * * * * * * * * * * * * * * * * * * * * //

dimensions      [0 3 -1 0 0 0 0];

internalField   nonuniform List<scalar> 
95320
(
0.00250152
-7.10061e-08
3.1945e-13
0.00250174
-2.14569e-07
9.42324e-13
0.0025021
-3.59901e-07
9.59892e-13
0.0025026
-5.06713e-07
7.29659e-13
0.00250326
-6.54801e-07
6.17274e-13
0.00250406
-8.0396e-07
5.67059e-13
0.00250502
-9.53975e-07
5.51864e-13
0.00250612
-1.10463e-06
5.55066e-13
0.00250738
-1.2557e-06
5.66469e-13
0.00250878
-1.40697e-06
5.82941e-13
0.00251034
-1.55821e-06
6.02259e-13
0.00251205
-1.70919e-06
6.22499e-13
0.00251391
-1.85969e-06
6.42267e-13
0.00251592
-2.00949e-06
6.60126e-13
0.00251808
-2.15836e-06
6.76669e-13
0.00252038
-2.30608e-06
6.93332e-13
0.00252284
-2.45244e-06
7.09126e-13
0.00252543
-2.59724e-06
7.22008e-13
0.00252817
-2.74027e-06
7.34015e-13
0.00253106
-2.88134e-06
7.45471e-13
0.00253408
-3.02026e-06
7.53869e-13
0.00253723
-3.15685e-06
7.59778e-13
0.00254052
-3.29095e-06
7.65286e-13
0.00254395
-3.42238e-06
7.6941e-13
0.0025475
-3.55102e-06
7.70375e-13
0.00255117
-3.67671e-06
7.69398e-13
0.00255497
-3.79933e-06
7.67657e-13
0.00255889
-3.91876e-06
7.64128e-13
0.00256293
-4.0349e-06
7.57838e-13
0.00256707
-4.14765e-06
7.49291e-13
0.00257133
-4.25694e-06
7.39047e-13
0.00257569
-4.36269e-06
7.27087e-13
0.00258016
-4.46484e-06
7.1346e-13
0.00258472
-4.56335e-06
6.98435e-13
0.00258938
-4.65818e-06
6.81992e-13
0.00259413
-4.7493e-06
6.64447e-13
0.00259897
-4.83669e-06
6.45663e-13
0.00260389
-4.92036e-06
6.25406e-13
0.00260889
-5.0003e-06
6.03446e-13
0.00261396
-5.07653e-06
5.80016e-13
0.00261911
-5.14906e-06
5.55325e-13
0.00262433
-5.21794e-06
5.29511e-13
0.00262961
-5.28318e-06
5.02729e-13
0.00263496
-5.34485e-06
4.75163e-13
0.00264036
-5.40299e-06
4.47142e-13
0.00264582
-5.45765e-06
4.19303e-13
0.00265133
-5.5089e-06
3.90867e-13
0.00265688
-5.55681e-06
3.61193e-13
0.00266249
-5.60145e-06
3.31546e-13
0.00266813
-5.64289e-06
3.01314e-13
0.00267381
-5.68122e-06
2.70462e-13
0.00267953
-5.71651e-06
2.3905e-13
0.00268528
-5.74886e-06
2.07149e-13
0.00269105
-5.77834e-06
1.75153e-13
0.00269686
-5.80506e-06
1.43663e-13
0.00270269
-5.82909e-06
1.12892e-13
0.00270854
-5.85054e-06
8.2805e-14
0.00271441
-5.86949e-06
5.34661e-14
0.00272029
-5.88603e-06
2.48633e-14
0.00272619
-5.90026e-06
-3.17645e-15
0.00273211
-5.91228e-06
-3.02883e-14
0.00273803
-5.92216e-06
-5.72233e-14
0.00274396
-5.93e-06
-8.40529e-14
0.00274989
-5.9359e-06
-1.1174e-13
0.00275583
-5.93993e-06
-1.39915e-13
0.00276178
-5.94219e-06
-1.67505e-13
0.00276772
-5.94277e-06
-1.94166e-13
0.00277366
-5.94173e-06
-2.2057e-13
0.0027796
-5.93918e-06
-2.47439e-13
0.00278554
-5.93518e-06
-2.7491e-13
0.00279147
-5.92982e-06
-3.02728e-13
0.00279739
-5.92316e-06
-3.30502e-13
0.0028033
-5.91529e-06
-3.57875e-13
0.00280921
-5.90628e-06
-3.84956e-13
0.00281511
-5.89619e-06
-4.12512e-13
0.00282099
-5.88508e-06
-4.41384e-13
0.00282686
-5.87304e-06
-4.71825e-13
0.00283272
-5.8601e-06
-5.03481e-13
0.00283857
-5.84634e-06
-5.35749e-13
0.0028444
-5.83182e-06
-5.68178e-13
0.00285022
-5.81658e-06
-6.00667e-13
0.00285602
-5.80068e-06
-6.33369e-13
0.0028618
-5.78416e-06
-6.66452e-13
0.00286757
-5.76709e-06
-6.99886e-13
0.00287332
-5.74949e-06
-7.33327e-13
0.00287905
-5.73143e-06
-7.66358e-13
0.00288477
-5.71292e-06
-7.99047e-13
0.00289046
-5.69403e-06
-8.32063e-13
0.00289613
-5.67477e-06
-8.66057e-13
0.00290179
-5.6552e-06
-9.00907e-13
0.00290742
-5.63533e-06
-9.35677e-13
0.00291304
-5.61521e-06
-9.69359e-13
0.00291863
-5.59486e-06
-1.00152e-12
0.00292421
-5.57431e-06
-1.03217e-12
0.00292976
-5.55358e-06
-1.06122e-12
0.0029353
-5.53271e-06
-1.08843e-12
0.00294081
-5.5117e-06
-1.11369e-12
0.0029463
-5.49059e-06
-1.1372e-12
0.00295177
-5.46939e-06
-1.15923e-12
0.00295721
-5.44812e-06
-1.17988e-12
0.00296264
-5.4268e-06
-1.19907e-12
0.00296805
-5.40544e-06
-1.21668e-12
0.00297343
-5.38406e-06
-1.23272e-12
0.00297879
-5.36266e-06
-1.24742e-12
0.00298414
-5.34127e-06
-1.26112e-12
0.00298946
-5.3199e-06
-1.27375e-12
0.00299475
-5.29854e-06
-1.28521e-12
0.00300003
-5.27722e-06
-1.29638e-12
0.00300529
-5.25593e-06
-1.30591e-12
0.00301052
-5.23469e-06
-1.31398e-12
0.00301574
-5.21351e-06
-1.32026e-12
0.00302093
-5.19238e-06
-1.32446e-12
0.0030261
-5.17131e-06
-1.32685e-12
0.00303125
-5.1503e-06
-1.32806e-12
0.00303638
-5.12937e-06
-1.32805e-12
0.00304149
-5.10851e-06
-1.32594e-12
0.00304657
-5.08772e-06
-1.32094e-12
0.00305164
-5.067e-06
-1.31335e-12
0.00305669
-5.04636e-06
-1.30417e-12
0.00306171
-5.02579e-06
-1.2939e-12
0.00306672
-5.0053e-06
-1.28202e-12
0.0030717
-4.98489e-06
-1.26785e-12
0.00307667
-4.96455e-06
-1.25162e-12
0.00308161
-4.94428e-06
-1.23448e-12
0.00308654
-4.92409e-06
-1.21727e-12
0.00309144
-4.90396e-06
-1.19987e-12
0.00309632
-4.88391e-06
-1.18154e-12
0.00310119
-4.86392e-06
-1.16185e-12
0.00310603
-4.84399e-06
-1.14094e-12
0.00311086
-4.82412e-06
-1.119e-12
0.00311566
-4.80431e-06
-1.09604e-12
0.00312045
-4.78456e-06
-1.07199e-12
0.00312521
-4.76486e-06
-1.04684e-12
0.00312996
-4.74521e-06
-1.02062e-12
0.00313468
-4.7256e-06
-9.93633e-13
0.00313939
-4.70604e-06
-9.66408e-13
0.00314407
-4.68651e-06
-9.39415e-13
0.00314874
-4.66703e-06
-9.12775e-13
0.00315339
-4.64757e-06
-8.86277e-13
0.00315802
-4.62814e-06
-8.59562e-13
0.00316263
-4.60874e-06
-8.32234e-13
0.00316721
-4.58936e-06
-8.04122e-13
0.00317178
-4.57e-06
-7.75179e-13
0.00317634
-4.55066e-06
-7.45082e-13
0.00318087
-4.53133e-06
-7.13464e-13
0.00318538
-4.51201e-06
-6.80151e-13
0.00318987
-4.4927e-06
-6.44979e-13
0.00319434
-4.47339e-06
-6.07862e-13
0.0031988
-4.45407e-06
-5.68854e-13
0.00320323
-4.43476e-06
-5.28527e-13
0.00320765
-4.41544e-06
-4.87972e-13
0.00321205
-4.39612e-06
-4.48178e-13
0.00321642
-4.37678e-06
-4.1002e-13
0.00322078
-4.35744e-06
-3.74202e-13
0.00322512
-4.33807e-06
-3.41239e-13
0.00322944
-4.31869e-06
-3.11685e-13
0.00323374
-4.29929e-06
-2.85931e-13
0.00323802
-4.27987e-06
-2.63945e-13
0.00324228
-4.26042e-06
-2.45175e-13
0.00324652
-4.24095e-06
-2.28773e-13
0.00325074
-4.22146e-06
-2.13866e-13
0.00325494
-4.20193e-06
-1.99743e-13
0.00325912
-4.18238e-06
-1.85876e-13
0.00326329
-4.16279e-06
-1.71843e-13
0.00326743
-4.14318e-06
-1.57629e-13
0.00327155
-4.12353e-06
-1.43582e-13
0.00327566
-4.10384e-06
-1.30016e-13
0.00327974
-4.08412e-06
-1.17413e-13
0.0032838
-4.06436e-06
-1.06274e-13
0.00328785
-4.04457e-06
-9.68329e-14
0.00329187
-4.02474e-06
-8.97032e-14
0.00329588
-4.00488e-06
-8.57783e-14
0.00329986
-3.98497e-06
-8.55106e-14
0.00330383
-3.96503e-06
-8.85422e-14
0.00330777
-3.94505e-06
-9.40656e-14
0.0033117
-3.92503e-06
-1.01234e-13
0.0033156
-3.90498e-06
-1.08778e-13
0.00331949
-3.88488e-06
-1.15675e-13
0.00332335
-3.86475e-06
-1.21119e-13
0.0033272
-3.84458e-06
-1.24762e-13
0.00333102
-3.82438e-06
-1.27099e-13
0.00333483
-3.80414e-06
-1.28703e-13
0.00333861
-3.78386e-06
-1.30153e-13
0.00334237
-3.76355e-06
-1.32492e-13
0.00334612
-3.74321e-06
-1.37013e-13
0.00334984
-3.72283e-06
-1.44802e-13
0.00335354
-3.70242e-06
-1.56488e-13
0.00335722
-3.68197e-06
-1.72483e-13
0.00336089
-3.6615e-06
-1.92482e-13
0.00336453
-3.641e-06
-2.15815e-13
0.00336815
-3.62047e-06
-2.4122e-13
0.00337175
-3.59991e-06
-2.66933e-13
0.00337533
-3.57933e-06
-2.90995e-13
0.00337889
-3.55872e-06
-3.11348e-13
0.00338242
-3.53808e-06
-3.26774e-13
0.00338594
-3.51743e-06
-3.36207e-13
0.00338944
-3.49675e-06
-3.39368e-13
0.00339291
-3.47606e-06
-3.37278e-13
0.00339637
-3.45534e-06
-3.32291e-13
0.0033998
-3.43461e-06
-3.27285e-13
0.00340322
-3.41387e-06
-3.25405e-13
0.00340661
-3.39311e-06
-3.2938e-13
0.00340998
-3.37234e-06
-3.3993e-13
0.00341333
-3.35156e-06
-3.58056e-13
0.00341666
-3.33077e-06
-3.83764e-13
0.00341997
-3.30997e-06
-4.15257e-13
0.00342326
-3.28916e-06
-4.49903e-13
0.00342653
-3.26836e-06
-4.83785e-13
0.00342978
-3.24754e-06
-5.14016e-13
0.00343301
-3.22673e-06
-5.38929e-13
0.00343621
-3.20592e-06
-5.57062e-13
0.0034394
-3.18511e-06
-5.68559e-13
0.00344256
-3.1643e-06
-5.73912e-13
0.00344571
-3.1435e-06
-5.74623e-13
0.00344883
-3.12271e-06
-5.73873e-13
0.00345193
-3.10192e-06
-5.73726e-13
0.00345501
-3.08114e-06
-5.75121e-13
0.00345807
-3.06038e-06
-5.8056e-13
0.00346111
-3.03963e-06
-5.92441e-13
0.00346413
-3.01889e-06
-6.11897e-13
0.00346713
-2.99817e-06
-6.38946e-13
0.00347011
-2.97747e-06
-6.70063e-13
0.00347306
-2.95679e-06
-7.00125e-13
0.003476
-2.93612e-06
-7.24049e-13
0.00347891
-2.91548e-06
-7.37817e-13
0.00348181
-2.89487e-06
-7.41087e-13
0.00348468
-2.87428e-06
-7.35068e-13
0.00348754
-2.85372e-06
-7.20768e-13
0.00349037
-2.83318e-06
-7.02364e-13
0.00349318
-2.81268e-06
-6.84311e-13
0.00349598
-2.79221e-06
-6.68487e-13
0.00349875
-2.77177e-06
-6.61373e-13
0.0035015
-2.75136e-06
-6.68147e-13
0.00350423
-2.73099e-06
-6.86841e-13
0.00350694
-2.71066e-06
-7.09953e-13
0.00350963
-2.69036e-06
-7.36251e-13
0.0035123
-2.67011e-06
-7.64526e-13
0.00351495
-2.64989e-06
-7.90161e-13
0.00351758
-2.62972e-06
-8.06571e-13
0.00352019
-2.60959e-06
-8.09843e-13
0.00352278
-2.58951e-06
-8.01229e-13
0.00352535
-2.56947e-06
-7.83678e-13
0.0035279
-2.54948e-06
-7.5686e-13
0.00353043
-2.52954e-06
-7.2243e-13
0.00353294
-2.50965e-06
-6.90627e-13
0.00353543
-2.48981e-06
-6.6911e-13
0.0035379
-2.47002e-06
-6.57449e-13
0.00354035
-2.45028e-06
-6.47348e-13
0.00354278
-2.4306e-06
-6.36393e-13
0.00354519
-2.41097e-06
-6.3202e-13
0.00354758
-2.39139e-06
-6.37052e-13
0.00354995
-2.37188e-06
-6.40678e-13
0.0035523
-2.35242e-06
-6.28365e-13
0.00355464
-2.33302e-06
-5.98742e-13
0.00355695
-2.31368e-06
-5.61101e-13
0.00355925
-2.29441e-06
-5.224e-13
0.00356152
-2.27519e-06
-4.83044e-13
0.00356378
-2.25604e-06
-4.40045e-13
0.00356601
-2.23695e-06
-3.96199e-13
0.00356823
-2.21792e-06
-3.59404e-13
0.00357043
-2.19896e-06
-3.33921e-13
0.00357261
-2.18006e-06
-3.11795e-13
0.00357477
-2.16123e-06
-2.86627e-13
0.00357691
-2.14247e-06
-2.67323e-13
0.00357904
-2.12378e-06
-2.56383e-13
0.00358114
-2.10515e-06
-2.40019e-13
0.00358323
-2.0866e-06
-1.97542e-13
0.0035853
-2.06811e-06
-1.41412e-13
0.00358735
-2.04969e-06
-9.33836e-14
0.00358938
-2.03135e-06
-7.02686e-14
0.00359139
-2.01307e-06
-5.14567e-14
0.00359339
-1.99487e-06
-2.14342e-14
0.00359536
-1.97674e-06
6.60842e-15
0.00359732
-1.95868e-06
1.24617e-14
0.00359926
-1.9407e-06
-1.90488e-15
0.00360119
-1.92278e-06
-1.6322e-14
0.00360309
-1.90495e-06
-1.93068e-14
0.00360498
-1.88718e-06
-1.82406e-14
0.00360685
-1.86949e-06
-1.14935e-14
0.0036087
-1.85187e-06
-4.41219e-15
0.00361053
-1.83433e-06
6.08447e-15
0.00361235
-1.81686e-06
3.24516e-14
0.00361415
-1.79947e-06
6.18621e-14
0.00361593
-1.78215e-06
7.97734e-14
0.0036177
-1.7649e-06
8.04539e-14
0.00361945
-1.74773e-06
6.38454e-14
0.00362118
-1.73063e-06
3.2067e-14
0.00362289
-1.71361e-06
-9.81845e-15
0.00362459
-1.69666e-06
-5.56875e-14
0.00362627
-1.67978e-06
-9.53517e-14
0.00362793
-1.66297e-06
-1.35843e-13
0.00362958
-1.64623e-06
-1.65778e-13
0.0036312
-1.62957e-06
-1.85739e-13
0.00363282
-1.61297e-06
-1.89784e-13
0.00363441
-1.59645e-06
-1.80074e-13
0.00363599
-1.57999e-06
-1.68741e-13
0.00363756
-1.5636e-06
-1.81829e-13
0.0036391
-1.54727e-06
-2.19302e-13
0.00364064
-1.53101e-06
-2.56936e-13
0.00364215
-1.51481e-06
-2.8833e-13
0.00364365
-1.49868e-06
-3.30814e-13
0.00364513
-1.4826e-06
-4.00517e-13
0.0036466
-1.46658e-06
-4.79369e-13
0.00364805
-1.45062e-06
-5.37036e-13
0.00364948
-1.43471e-06
-5.7271e-13
0.0036509
-1.41886e-06
-5.9213e-13
0.00365231
-1.40305e-06
-5.97817e-13
0.00365369
-1.38729e-06
-6.07419e-13
0.00365506
-1.37158e-06
-6.1864e-13
0.00365642
-1.3559e-06
-6.25066e-13
0.00365776
-1.34027e-06
-6.28275e-13
0.00365909
-1.32467e-06
-6.37971e-13
0.00366039
-1.3091e-06
-6.64703e-13
0.00366169
-1.29356e-06
-7.03775e-13
0.00366297
-1.27805e-06
-7.34405e-13
0.00366423
-1.26256e-06
-7.46622e-13
0.00366548
-1.24708e-06
-7.55792e-13
0.00366671
-1.23162e-06
-7.72096e-13
0.00366792
-1.21617e-06
-7.68041e-13
0.00366912
-1.20073e-06
-7.33891e-13
0.00367031
-1.18529e-06
-7.00108e-13
0.00367148
-1.16984e-06
-6.75201e-13
0.00367263
-1.15439e-06
-6.39436e-13
0.00367377
-1.13892e-06
-5.9595e-13
0.0036749
-1.12344e-06
-5.58296e-13
0.003676
-1.10793e-06
-5.21825e-13
0.0036771
-1.0924e-06
-4.85889e-13
0.00367817
-1.07684e-06
-4.43484e-13
0.00367923
-1.06125e-06
-4.00632e-13
0.00368028
-1.04561e-06
-3.80075e-13
0.00368131
-1.02993e-06
-3.50012e-13
0.00368232
-1.0142e-06
-3.10178e-13
0.00368332
-9.98424e-07
-2.7915e-13
0.00368431
-9.82587e-07
-2.59336e-13
0.00368527
-9.66691e-07
-2.47991e-13
0.00368622
-9.5073e-07
-2.28869e-13
0.00368716
-9.34704e-07
-1.92062e-13
0.00368808
-9.18608e-07
-1.50738e-13
0.00368898
-9.0244e-07
-1.30051e-13
0.00368986
-8.86198e-07
-9.81555e-14
0.00369073
-8.69881e-07
-1.70469e-14
0.00369159
-8.53488e-07
6.91038e-14
0.00369243
-8.37017e-07
1.22121e-13
0.00369325
-8.2047e-07
1.30718e-13
0.00369405
-8.03847e-07
1.27955e-13
0.00369484
-7.87148e-07
1.21373e-13
0.00369561
-7.70376e-07
1.19792e-13
0.00369636
-7.53534e-07
9.57787e-14
0.0036971
-7.36625e-07
3.69145e-14
0.00369782
-7.19653e-07
-5.54974e-15
0.00369852
-7.02622e-07
4.82836e-15
0.00369921
-6.85539e-07
2.35056e-14
0.00369987
-6.6841e-07
4.58128e-14
0.00370052
-6.51242e-07
1.0568e-13
0.00370116
-6.34043e-07
1.59842e-13
0.00370178
-6.16821e-07
2.01448e-13
0.00370238
-5.99587e-07
1.94513e-13
0.00370296
-5.82351e-07
1.55317e-13
0.00370352
-5.65125e-07
1.08305e-13
0.00370407
-5.47918e-07
7.19694e-14
0.0037046
-5.30746e-07
1.13384e-14
0.00370511
-5.1362e-07
-5.37801e-14
0.00370561
-4.96554e-07
-1.14628e-13
0.00370609
-4.79564e-07
-1.53158e-13
0.00370655
-4.62664e-07
-1.40991e-13
0.003707
-4.4587e-07
-1.10218e-13
0.00370743
-4.29197e-07
-1.5387e-13
0.00370784
-4.12662e-07
-1.69669e-13
0.00370824
-3.96282e-07
-1.19386e-13
0.00370862
-3.80074e-07
-8.95027e-14
0.00370898
-3.64053e-07
-1.16807e-13
0.00370933
-3.48238e-07
-1.78896e-13
0.00370966
-3.32645e-07
-1.77623e-13
0.00370998
-3.17292e-07
-2.1331e-13
0.00371028
-3.02194e-07
-2.87998e-13
0.00371057
-2.87368e-07
-3.23782e-13
0.00371084
-2.72831e-07
-3.36309e-13
0.0037111
-2.58598e-07
-3.95517e-13
0.00371135
-2.44683e-07
-4.44286e-13
0.00371158
-2.31102e-07
-4.39097e-13
0.00371179
-2.17869e-07
-4.42305e-13
0.003712
-2.04996e-07
-4.80655e-13
0.00371219
-1.92495e-07
-4.30331e-13
0.00371237
-1.80378e-07
-3.79919e-13
0.00371254
-1.68656e-07
-3.44131e-13
0.0037127
-1.57337e-07
-2.82342e-13
0.00371284
-1.4643e-07
-2.54287e-13
0.00371298
-1.35942e-07
-2.65651e-13
0.00371311
-1.25879e-07
-2.50793e-13
0.00371322
-1.16246e-07
-1.92935e-13
0.00371333
-1.07046e-07
-1.52719e-13
0.00371343
-9.82804e-08
-1.32975e-13
0.00371352
-8.99515e-08
-1.42426e-13
0.0037136
-8.20583e-08
-1.66195e-13
0.00371367
-7.45992e-08
-1.83235e-13
0.00371374
-6.75711e-08
-2.09062e-13
0.0037138
-6.09694e-08
-2.14856e-13
0.00371386
-5.47884e-08
-1.60828e-13
0.00371391
-4.90213e-08
-1.18442e-13
0.00371395
-4.36596e-08
-1.24827e-13
0.00371399
-3.86937e-08
-1.73708e-13
0.00371402
-3.41129e-08
-9.66281e-14
0.00371405
-2.99055e-08
-2.74331e-15
0.00371408
-2.60582e-08
-2.93694e-15
0.0037141
-2.25571e-08
-5.96305e-15
0.00371412
-1.93874e-08
7.18514e-14
0.00371414
-1.65334e-08
1.33794e-13
0.00371415
-1.39785e-08
8.02157e-14
0.00371416
-1.17057e-08
7.02856e-14
0.00371417
-9.69781e-09
1.92649e-13
0.00371418
-7.93668e-09
2.29278e-13
0.00371419
-6.40428e-09
1.49486e-13
0.00371419
-5.0827e-09
1.63997e-13
0.0037142
-3.95394e-09
2.52001e-13
0.0037142
-3.00019e-09
2.15086e-13
0.0037142
-2.20407e-09
1.47076e-13
0.0037142
-1.54877e-09
1.87812e-13
0.0037142
-1.01823e-09
2.58319e-13
0.00371421
-5.96893e-10
2.46943e-13
0.00371421
-2.70125e-10
1.42411e-13
0.00371421
-2.43638e-11
1.04955e-13
0.00371421
1.52987e-10
1.19738e-13
0.00371421
2.73511e-10
1.31038e-13
0.0037142
3.47702e-10
6.28961e-14
0.0037142
3.84865e-10
2.06004e-14
0.0037142
3.93234e-10
4.41855e-14
0.0037142
3.80057e-10
1.43727e-14
0.0037142
3.51421e-10
-5.74414e-14
0.0037142
3.12454e-10
-5.83082e-14
0.0037142
2.67571e-10
-8.83375e-14
0.0037142
2.20086e-10
-1.32113e-13
0.0037142
1.72521e-10
-1.18785e-13
0.0037142
1.26999e-10
-1.06205e-13
0.0037142
8.49905e-11
-1.857e-13
0.0037142
4.72452e-11
-2.23315e-13
0.0037142
1.43669e-11
-2.16166e-13
0.0037142
-1.35143e-11
-1.98346e-13
0.0037142
-3.64855e-11
-2.27319e-13
0.0037142
-5.47288e-11
-2.46967e-13
0.0037142
-6.87858e-11
-1.78952e-13
0.0037142
-7.90711e-11
-2.38224e-13
0.0037142
-8.59882e-11
-3.0765e-13
0.0037142
-9.03824e-11
-1.52706e-13
0.0037142
-9.25252e-11
-1.68599e-13
0.0037142
-9.26583e-11
-2.6605e-13
0.0037142
-9.17213e-11
-1.07003e-13
0.0037142
-8.98308e-11
-1.89422e-13
0.0037142
-8.71427e-11
-3.46977e-13
0.0037142
-8.42403e-11
-1.96842e-13
0.0037142
-8.1028e-11
-1.9319e-13
0.0037142
-7.78743e-11
-1.9069e-13
0.0037142
-7.48235e-11
-2.41419e-13
0.0037142
-7.18184e-11
-3.79772e-13
0.0037142
-6.91111e-11
-2.77612e-13
0.0037142
-6.65653e-11
-2.4486e-13
0.0037142
-6.42473e-11
-2.88378e-13
0.0037142
-6.21303e-11
-3.11253e-13
0.0037142
-6.0346e-11
-2.7247e-13
0.0037142
-5.86722e-11
-3.45227e-13
0.0037142
-5.70806e-11
-2.87569e-13
0.0037142
-5.55472e-11
-2.2304e-13
0.0037142
-5.43039e-11
-2.45153e-13
0.0037142
-5.32126e-11
-2.97693e-13
0.0037142
-5.20234e-11
-2.92707e-13
0.0037142
-5.07985e-11
-2.30904e-13
0.0037142
-4.98601e-11
-1.17633e-13
0.0037142
-4.89788e-11
-1.99077e-13
0.0037142
-4.78949e-11
-3.36951e-13
0.0037142
-4.70089e-11
-1.37945e-13
0.0037142
-4.60922e-11
-1.07907e-13
0.0037142
-4.51404e-11
-1.42977e-13
0.0037142
-4.43341e-11
-1.12394e-13
0.0037142
-4.36061e-11
-1.23088e-13
0.0037142
-4.27485e-11
-1.13383e-13
0.0037142
-4.16245e-11
-1.36127e-13
0.0037142
-4.10022e-11
3.59206e-14
0.0037142
-4.03062e-11
-5.88611e-14
0.0037142
-3.94248e-11
-1.38732e-13
0.0037142
-3.87251e-11
-3.4071e-14
0.0037142
-3.80589e-11
2.11385e-14
0.0037142
-3.71867e-11
-3.76785e-14
0.0037142
-3.65673e-11
-2.39652e-14
0.0037142
-3.59104e-11
-3.25937e-14
0.0037142
-3.52539e-11
3.68972e-14
0.0037142
-3.46885e-11
4.57961e-14
0.0037142
-3.38977e-11
-4.06795e-14
0.0037142
-3.33034e-11
6.54035e-14
0.0037142
-3.28667e-11
1.05948e-13
0.00371421
-3.20655e-11
-8.60595e-14
0.00371421
-3.16328e-11
1.02401e-13
0.00371421
-3.10174e-11
-2.5075e-15
0.00371421
-3.03563e-11
-7.46273e-14
0.00371421
-2.99137e-11
2.25277e-14
0.00371421
-2.93881e-11
-6.09058e-15
0.00371421
-2.8859e-11
-6.12936e-14
0.00371421
-2.82407e-11
-1.86519e-13
0.00371421
-2.79152e-11
1.41556e-14
0.00371421
-2.74171e-11
-5.34178e-14
0.00371421
-2.68536e-11
-1.18362e-13
0.00371421
-2.64205e-11
-1.47731e-14
0.00371421
-2.6026e-11
-3.01854e-14
0.00371421
-2.57293e-11
-1.21263e-14
0.00371421
-2.51756e-11
1.06125e-15
0.00371421
-2.48301e-11
-1.04997e-14
0.00371421
-2.44914e-11
1.09378e-15
0.00371421
-2.40986e-11
6.99266e-14
0.00371421
-2.35981e-11
-1.04899e-14
0.00371421
-2.35745e-11
1.76554e-13
0.00371421
-2.30293e-11
1.53353e-14
0.00371421
-2.25795e-11
2.76722e-14
0.00371421
-2.24667e-11
1.22931e-13
0.00371421
-2.19749e-11
1.70579e-14
0.00371421
-2.17048e-11
3.17138e-14
0.00371421
-2.14507e-11
5.20463e-14
0.00371421
-2.08957e-11
-9.86393e-14
0.00371421
-2.07782e-11
5.24448e-14
0.00371421
-2.0487e-11
4.45931e-14
0.00371421
-1.99287e-11
-1.58806e-13
0.00371421
-1.99407e-11
1.17333e-14
0.00371421
-1.94474e-11
-1.5444e-13
0.00371421
-1.92882e-11
-4.24539e-14
0.00371421
-1.89405e-11
-8.33785e-14
0.00371421
-1.87546e-11
-1.59192e-14
0.00371421
-1.84525e-11
-1.42277e-13
0.00371421
-1.81804e-11
-3.31012e-14
0.00371421
-1.79238e-11
-8.17887e-14
0.00371421
-1.76811e-11
-1.3171e-13
0.00371421
-1.76574e-11
1.18621e-13
0.00371421
-1.70536e-11
-2.54559e-13
0.00371421
-1.72516e-11
1.85607e-13
0.00371421
-1.68136e-11
-2.69548e-14
0.00371421
-1.66091e-11
-1.58091e-14
0.00371421
-1.64279e-11
1.83021e-14
0.00371421
-1.6296e-11
4.68328e-14
0.00371421
-1.60521e-11
3.72436e-14
0.00371421
-1.5869e-11
-6.58862e-15
0.00371421
-1.58256e-11
1.56405e-13
0.00371421
-1.5233e-11
-1.14986e-13
0.00371421
-1.53719e-11
1.92975e-13
0.00371421
-1.50186e-11
1.09367e-15
0.00371421
-1.48294e-11
7.07238e-14
0.00371421
-1.45705e-11
-5.43603e-14
0.00371421
-1.44126e-11
5.22491e-14
0.00371421
-1.4294e-11
-6.59414e-15
0.00371421
-1.40936e-11
-2.01671e-14
0.00371421
-1.38962e-11
-5.8418e-14
0.00371421
-1.38412e-11
2.34837e-14
0.00371421
-1.37237e-11
1.83155e-13
0.00371421
-1.32411e-11
-2.08533e-13
0.00371421
-1.34043e-11
3.55544e-14
0.00371421
-1.32804e-11
1.25129e-13
0.00371421
-1.30949e-11
4.61453e-14
0.00371421
-1.29712e-11
9.71446e-14
0.00371421
-1.27751e-11
-7.32839e-15
0.00371421
-1.281e-11
1.09453e-13
0.00371421
-1.26137e-11
7.74187e-14
0.00371421
-1.24367e-11
4.9891e-14
0.00371421
-1.24503e-11
8.07824e-14
0.00371421
-1.22442e-11
4.38219e-14
0.00371421
-1.21912e-11
1.14758e-13
0.00371421
-1.19457e-11
-5.5705e-14
0.00371421
-1.16892e-11
-8.80638e-14
0.00371421
-1.18879e-11
1.57521e-13
0.00371421
-1.17659e-11
1.41066e-13
0.00371421
-1.13158e-11
-1.53719e-13
0.00371421
-1.12904e-11
-6.98511e-14
0.00371421
-1.11808e-11
-1.08541e-13
0.00371421
-1.09234e-11
-2.00344e-13
0.00371421
-1.10397e-11
1.9876e-14
0.00371421
-1.07646e-11
-9.66402e-14
0.00371421
-1.04314e-11
-3.27887e-13
0.00371421
-1.05778e-11
-1.23508e-13
0.00371421
-1.03395e-11
-1.89723e-13
0.00371421
-1.03214e-11
-1.96187e-13
0.00371421
-1.0083e-11
-1.57996e-13
0.00371421
-1.01034e-11
-1.80193e-13
0.00371421
-9.73203e-12
-2.24484e-13
0.00371421
-1.00404e-11
1.00001e-13
0.00371421
-9.51001e-12
-3.19473e-13
0.00371421
-9.9029e-12
1.37089e-13
0.00371421
-9.80357e-12
1.50627e-13
0.00371421
-9.83477e-12
2.63663e-13
0.00371421
-9.55132e-12
4.21963e-14
0.00371421
-9.65026e-12
1.88898e-13
0.00371421
-9.61821e-12
3.42323e-13
0.00371421
-9.34612e-12
9.72644e-14
0.00371421
-9.3655e-12
3.05248e-13
0.00371421
-9.27663e-12
1.94957e-13
0.00371421
-9.20563e-12
3.52306e-13
0.00371421
-9.09062e-12
1.96398e-13
0.00371421
-8.66134e-12
1.27838e-13
0.00371421
-9.11133e-12
4.03364e-13
0.00371421
-8.53449e-12
1.90845e-13
0.00371421
-8.85201e-12
2.83901e-13
0.00371421
-7.74643e-12
4.77613e-14
0.00371421
-8.14339e-12
1.81981e-13
0.00371421
-6.87072e-12
-7.52418e-14
0.00371421
-6.59095e-12
3.72407e-13
0.00371421
-4.97701e-12
2.16058e-13
-4.02444e-13
-1.33526e-14
0.00240039
-1.40667e-07
0.0024006
-4.25032e-07
0.00240096
-7.12899e-07
0.00240145
-1.00369e-06
0.0024021
-1.29699e-06
0.00240288
-1.59239e-06
0.00240382
-1.88945e-06
0.0024049
-2.18774e-06
0.00240613
-2.48681e-06
0.00240751
-2.7862e-06
0.00240904
-3.08547e-06
0.00241071
-3.38416e-06
0.00241254
-3.68181e-06
0.00241451
-3.97798e-06
0.00241662
-4.27222e-06
0.00241888
-4.5641e-06
0.00242128
-4.85319e-06
0.00242382
-5.13907e-06
0.0024265
-5.42135e-06
0.00242932
-5.69963e-06
0.00243227
-5.97354e-06
0.00243536
-6.24274e-06
0.00243857
-6.50689e-06
0.00244192
-6.76567e-06
0.00244539
-7.0188e-06
0.00244897
-7.266e-06
0.00245268
-7.50702e-06
0.00245651
-7.74165e-06
0.00246044
-7.96967e-06
0.00246448
-8.19092e-06
0.00246863
-8.40523e-06
0.00247288
-8.61247e-06
0.00247723
-8.81254e-06
0.00248167
-9.00535e-06
0.0024862
-9.19083e-06
0.00249082
-9.36893e-06
0.00249553
-9.53964e-06
0.00250031
-9.70295e-06
0.00250517
-9.85888e-06
0.0025101
-1.00075e-05
0.0025151
-1.01487e-05
0.00252016
-1.02828e-05
0.00252529
-1.04097e-05
0.00253047
-1.05295e-05
0.00253571
-1.06423e-05
0.002541
-1.07484e-05
0.00254634
-1.08477e-05
0.00255173
-1.09405e-05
0.00255715
-1.10268e-05
0.00256262
-1.11069e-05
0.00256812
-1.11808e-05
0.00257365
-1.12489e-05
0.00257921
-1.13111e-05
0.0025848
-1.13678e-05
0.00259041
-1.1419e-05
0.00259605
-1.14651e-05
0.0026017
-1.1506e-05
0.00260738
-1.15421e-05
0.00261306
-1.15735e-05
0.00261877
-1.16004e-05
0.00262448
-1.1623e-05
0.0026302
-1.16414e-05
0.00263592
-1.16558e-05
0.00264165
-1.16665e-05
0.00264739
-1.16735e-05
0.00265312
-1.16771e-05
0.00265885
-1.16774e-05
0.00266459
-1.16746e-05
0.00267032
-1.16688e-05
0.00267604
-1.16602e-05
0.00268176
-1.1649e-05
0.00268747
-1.16352e-05
0.00269318
-1.16191e-05
0.00269887
-1.16007e-05
0.00270456
-1.15803e-05
0.00271023
-1.15578e-05
0.00271589
-1.15335e-05
0.00272154
-1.15075e-05
0.00272717
-1.14799e-05
0.00273279
-1.14507e-05
0.00273839
-1.14201e-05
0.00274398
-1.13883e-05
0.00274955
-1.13552e-05
0.00275511
-1.1321e-05
0.00276064
-1.12858e-05
0.00276616
-1.12497e-05
0.00277166
-1.12126e-05
0.00277714
-1.11748e-05
0.0027826
-1.11363e-05
0.00278804
-1.10971e-05
0.00279347
-1.10573e-05
0.00279887
-1.1017e-05
0.00280425
-1.09762e-05
0.00280961
-1.09349e-05
0.00281495
-1.08934e-05
0.00282027
-1.08514e-05
0.00282557
-1.08092e-05
0.00283084
-1.07668e-05
0.0028361
-1.07241e-05
0.00284133
-1.06813e-05
0.00284654
-1.06384e-05
0.00285173
-1.05953e-05
0.0028569
-1.05522e-05
0.00286205
-1.0509e-05
0.00286717
-1.04658e-05
0.00287227
-1.04225e-05
0.00287735
-1.03793e-05
0.00288241
-1.03361e-05
0.00288745
-1.0293e-05
0.00289246
-1.02499e-05
0.00289746
-1.02069e-05
0.00290243
-1.0164e-05
0.00290738
-1.01211e-05
0.00291231
-1.00784e-05
0.00291721
-1.00358e-05
0.0029221
-9.99328e-06
0.00292696
-9.9509e-06
0.0029318
-9.90864e-06
0.00293662
-9.8665e-06
0.00294142
-9.8245e-06
0.0029462
-9.78263e-06
0.00295096
-9.74089e-06
0.00295569
-9.69928e-06
0.0029604
-9.6578e-06
0.0029651
-9.61645e-06
0.00296977
-9.57523e-06
0.00297442
-9.53414e-06
0.00297905
-9.49316e-06
0.00298366
-9.45231e-06
0.00298824
-9.41157e-06
0.00299281
-9.37095e-06
0.00299736
-9.33043e-06
0.00300188
-9.29001e-06
0.00300638
-9.2497e-06
0.00301087
-9.20947e-06
0.00301533
-9.16934e-06
0.00301977
-9.12929e-06
0.0030242
-9.08932e-06
0.0030286
-9.04942e-06
0.00303298
-9.00959e-06
0.00303734
-8.96983e-06
0.00304168
-8.93012e-06
0.003046
-8.89046e-06
0.0030503
-8.85085e-06
0.00305458
-8.81129e-06
0.00305884
-8.77175e-06
0.00306308
-8.73226e-06
0.0030673
-8.69278e-06
0.0030715
-8.65333e-06
0.00307568
-8.6139e-06
0.00307984
-8.57448e-06
0.00308398
-8.53507e-06
0.0030881
-8.49567e-06
0.0030922
-8.45626e-06
0.00309627
-8.41686e-06
0.00310033
-8.37744e-06
0.00310437
-8.33802e-06
0.00310839
-8.29858e-06
0.00311239
-8.25912e-06
0.00311637
-8.21964e-06
0.00312033
-8.18014e-06
0.00312427
-8.14062e-06
0.00312818
-8.10107e-06
0.00313208
-8.06149e-06
0.00313596
-8.02187e-06
0.00313982
-7.98222e-06
0.00314366
-7.94254e-06
0.00314748
-7.90282e-06
0.00315128
-7.86306e-06
0.00315505
-7.82326e-06
0.00315881
-7.78343e-06
0.00316255
-7.74355e-06
0.00316627
-7.70363e-06
0.00316997
-7.66367e-06
0.00317365
-7.62366e-06
0.00317731
-7.58362e-06
0.00318095
-7.54353e-06
0.00318456
-7.5034e-06
0.00318816
-7.46323e-06
0.00319174
-7.42302e-06
0.0031953
-7.38277e-06
0.00319884
-7.34248e-06
0.00320236
-7.30215e-06
0.00320585
-7.26178e-06
0.00320933
-7.22138e-06
0.00321279
-7.18095e-06
0.00321623
-7.14048e-06
0.00321965
-7.09998e-06
0.00322304
-7.05945e-06
0.00322642
-7.01889e-06
0.00322978
-6.9783e-06
0.00323312
-6.93769e-06
0.00323644
-6.89706e-06
0.00323973
-6.85641e-06
0.00324301
-6.81574e-06
0.00324627
-6.77505e-06
0.00324951
-6.73435e-06
0.00325272
-6.69363e-06
0.00325592
-6.65291e-06
0.0032591
-6.61218e-06
0.00326226
-6.57145e-06
0.00326539
-6.53071e-06
0.00326851
-6.48998e-06
0.00327161
-6.44925e-06
0.00327469
-6.40852e-06
0.00327774
-6.3678e-06
0.00328078
-6.32709e-06
0.0032838
-6.2864e-06
0.0032868
-6.24572e-06
0.00328978
-6.20507e-06
0.00329274
-6.16443e-06
0.00329567
-6.12382e-06
0.00329859
-6.08323e-06
0.00330149
-6.04268e-06
0.00330437
-6.00215e-06
0.00330723
-5.96167e-06
0.00331007
-5.92122e-06
0.00331289
-5.88081e-06
0.00331569
-5.84044e-06
0.00331847
-5.80012e-06
0.00332124
-5.75985e-06
0.00332398
-5.71963e-06
0.0033267
-5.67946e-06
0.0033294
-5.63935e-06
0.00333209
-5.5993e-06
0.00333475
-5.55931e-06
0.0033374
-5.51939e-06
0.00334002
-5.47953e-06
0.00334263
-5.43974e-06
0.00334522
-5.40002e-06
0.00334779
-5.36038e-06
0.00335033
-5.32081e-06
0.00335286
-5.28132e-06
0.00335538
-5.24191e-06
0.00335787
-5.20259e-06
0.00336034
-5.16335e-06
0.00336279
-5.12419e-06
0.00336523
-5.08513e-06
0.00336765
-5.04616e-06
0.00337004
-5.00729e-06
0.00337242
-4.96851e-06
0.00337478
-4.92983e-06
0.00337712
-4.89125e-06
0.00337945
-4.85277e-06
0.00338175
-4.8144e-06
0.00338404
-4.77613e-06
0.00338631
-4.73797e-06
0.00338856
-4.69992e-06
0.00339079
-4.66199e-06
0.003393
-4.62416e-06
0.0033952
-4.58645e-06
0.00339737
-4.54886e-06
0.00339953
-4.51139e-06
0.00340167
-4.47404e-06
0.0034038
-4.43681e-06
0.0034059
-4.3997e-06
0.00340799
-4.36272e-06
0.00341006
-4.32586e-06
0.00341211
-4.28914e-06
0.00341415
-4.25254e-06
0.00341616
-4.21607e-06
0.00341816
-4.17973e-06
0.00342015
-4.14353e-06
0.00342211
-4.10746e-06
0.00342406
-4.07152e-06
0.00342599
-4.03572e-06
0.0034279
-4.00006e-06
0.0034298
-3.96454e-06
0.00343168
-3.92915e-06
0.00343354
-3.89391e-06
0.00343539
-3.85881e-06
0.00343721
-3.82384e-06
0.00343903
-3.78903e-06
0.00344082
-3.75435e-06
0.0034426
-3.71981e-06
0.00344436
-3.68542e-06
0.00344611
-3.65118e-06
0.00344784
-3.61708e-06
0.00344955
-3.58312e-06
0.00345125
-3.54931e-06
0.00345293
-3.51564e-06
0.0034546
-3.48212e-06
0.00345625
-3.44874e-06
0.00345788
-3.41551e-06
0.0034595
-3.38242e-06
0.0034611
-3.34948e-06
0.00346269
-3.31668e-06
0.00346426
-3.28402e-06
0.00346581
-3.2515e-06
0.00346735
-3.21913e-06
0.00346887
-3.18689e-06
0.00347038
-3.1548e-06
0.00347188
-3.12283e-06
0.00347335
-3.09101e-06
0.00347482
-3.05932e-06
0.00347627
-3.02776e-06
0.0034777
-2.99633e-06
0.00347912
-2.96503e-06
0.00348052
-2.93385e-06
0.00348191
-2.90279e-06
0.00348328
-2.87185e-06
0.00348464
-2.84103e-06
0.00348598
-2.81032e-06
0.00348731
-2.77971e-06
0.00348863
-2.74921e-06
0.00348993
-2.71882e-06
0.00349121
-2.68851e-06
0.00349248
-2.6583e-06
0.00349374
-2.62817e-06
0.00349498
-2.59812e-06
0.00349621
-2.56814e-06
0.00349742
-2.53824e-06
0.00349862
-2.50839e-06
0.00349981
-2.4786e-06
0.00350098
-2.44886e-06
0.00350213
-2.41915e-06
0.00350328
-2.38949e-06
0.0035044