/*--------------------------------*- C++ -*----------------------------------*\
  =========                 |
  \\      /  F ield         | OpenFOAM: The Open Source CFD Toolbox
   \\    /   O peration     | Website:  https://openfoam.org
    \\  /    A nd           | Version:  7
     \\/     M anipulation  |
\*---------------------------------------------------------------------------*/
FoamFile
{
    version     2.0;
    format      ascii;
    class       volVectorField;
    location    "5";
    object      U;
}
// * * * * * * * * * * * * * * * * * * * * * * * * * * * * * * * * * * * * * //

dimensions      [0 1 -1 0 0 0 0];

internalField   nonuniform List<vector> 
48000
(
(1.00001 -5.53422e-05 0)
(1.00006 -0.000166427 0)
(1.00017 -0.000277964 0)
(1.00034 -0.000389782 0)
(1.00058 -0.000501717 0)
(1.00087 -0.000613609 0)
(1.00122 -0.000725291 0)
(1.00163 -0.0008366 0)
(1.0021 -0.000947368 0)
(1.00264 -0.00105743 0)
(1.00323 -0.00116662 0)
(1.00388 -0.00127479 0)
(1.00459 -0.00138176 0)
(1.00537 -0.00148739 0)
(1.0062 -0.00159152 0)
(1.00709 -0.001694 0)
(1.00805 -0.00179471 0)
(1.00905 -0.00189349 0)
(1.01012 -0.00199022 0)
(1.01125 -0.00208479 0)
(1.01243 -0.00217708 0)
(1.01366 -0.00226697 0)
(1.01495 -0.00235438 0)
(1.01629 -0.00243922 0)
(1.01769 -0.00252139 0)
(1.01913 -0.00260084 0)
(1.02063 -0.0026775 0)
(1.02217 -0.00275132 0)
(1.02376 -0.00282225 0)
(1.0254 -0.00289025 0)
(1.02708 -0.00295529 0)
(1.0288 -0.00301737 0)
(1.03056 -0.00307646 0)
(1.03237 -0.00313257 0)
(1.03421 -0.00318569 0)
(1.03609 -0.00323585 0)
(1.03801 -0.00328306 0)
(1.03996 -0.00332734 0)
(1.04194 -0.00336873 0)
(1.04396 -0.00340728 0)
(1.046 -0.00344301 0)
(1.04808 -0.00347598 0)
(1.05017 -0.00350625 0)
(1.0523 -0.00353386 0)
(1.05445 -0.00355889 0)
(1.05662 -0.0035814 0)
(1.05881 -0.00360145 0)
(1.06102 -0.00361911 0)
(1.06325 -0.00363446 0)
(1.0655 -0.00364757 0)
(1.06777 -0.00365852 0)
(1.07005 -0.00366738 0)
(1.07234 -0.00367422 0)
(1.07464 -0.00367914 0)
(1.07696 -0.0036822 0)
(1.07928 -0.00368348 0)
(1.08162 -0.00368306 0)
(1.08396 -0.00368101 0)
(1.08631 -0.00367742 0)
(1.08867 -0.00367236 0)
(1.09103 -0.0036659 0)
(1.09339 -0.00365811 0)
(1.09576 -0.00364906 0)
(1.09814 -0.00363883 0)
(1.10051 -0.00362749 0)
(1.10288 -0.00361509 0)
(1.10526 -0.0036017 0)
(1.10764 -0.00358739 0)
(1.11001 -0.00357222 0)
(1.11238 -0.00355624 0)
(1.11476 -0.0035395 0)
(1.11713 -0.00352208 0)
(1.11949 -0.00350401 0)
(1.12186 -0.00348535 0)
(1.12421 -0.00346615 0)
(1.12657 -0.00344644 0)
(1.12892 -0.00342629 0)
(1.13126 -0.00340572 0)
(1.1336 -0.00338478 0)
(1.13594 -0.00336351 0)
(1.13827 -0.00334194 0)
(1.14059 -0.00332011 0)
(1.14291 -0.00329805 0)
(1.14521 -0.00327579 0)
(1.14752 -0.00325336 0)
(1.14981 -0.00323079 0)
(1.1521 -0.0032081 0)
(1.15438 -0.00318533 0)
(1.15665 -0.00316248 0)
(1.15892 -0.00313959 0)
(1.16117 -0.00311667 0)
(1.16342 -0.00309374 0)
(1.16566 -0.00307082 0)
(1.1679 -0.00304792 0)
(1.17012 -0.00302506 0)
(1.17234 -0.00300226 0)
(1.17454 -0.00297952 0)
(1.17674 -0.00295686 0)
(1.17893 -0.00293429 0)
(1.18112 -0.00291181 0)
(1.18329 -0.00288945 0)
(1.18545 -0.00286719 0)
(1.18761 -0.00284506 0)
(1.18976 -0.00282305 0)
(1.1919 -0.00280118 0)
(1.19403 -0.00277944 0)
(1.19615 -0.00275785 0)
(1.19827 -0.0027364 0)
(1.20037 -0.0027151 0)
(1.20247 -0.00269395 0)
(1.20456 -0.00267296 0)
(1.20664 -0.00265212 0)
(1.20871 -0.00263144 0)
(1.21077 -0.00261091 0)
(1.21283 -0.00259054 0)
(1.21487 -0.00257033 0)
(1.21691 -0.00255027 0)
(1.21894 -0.00253038 0)
(1.22096 -0.00251063 0)
(1.22297 -0.00249105 0)
(1.22498 -0.00247161 0)
(1.22698 -0.00245233 0)
(1.22897 -0.0024332 0)
(1.23095 -0.00241422 0)
(1.23292 -0.00239538 0)
(1.23488 -0.00237669 0)
(1.23684 -0.00235814 0)
(1.23879 -0.00233973 0)
(1.24073 -0.00232146 0)
(1.24266 -0.00230332 0)
(1.24459 -0.00228532 0)
(1.2465 -0.00226745 0)
(1.24841 -0.00224971 0)
(1.25031 -0.00223209 0)
(1.2522 -0.0022146 0)
(1.25409 -0.00219722 0)
(1.25597 -0.00217997 0)
(1.25784 -0.00216283 0)
(1.2597 -0.00214581 0)
(1.26155 -0.00212889 0)
(1.2634 -0.00211209 0)
(1.26524 -0.00209539 0)
(1.26707 -0.00207879 0)
(1.26889 -0.0020623 0)
(1.27071 -0.00204591 0)
(1.27251 -0.00202962 0)
(1.27431 -0.00201342 0)
(1.27611 -0.00199731 0)
(1.27789 -0.0019813 0)
(1.27967 -0.00196537 0)
(1.28144 -0.00194954 0)
(1.2832 -0.00193379 0)
(1.28495 -0.00191813 0)
(1.2867 -0.00190255 0)
(1.28844 -0.00188705 0)
(1.29017 -0.00187163 0)
(1.29189 -0.00185629 0)
(1.2936 -0.00184103 0)
(1.29531 -0.00182584 0)
(1.29701 -0.00181073 0)
(1.2987 -0.0017957 0)
(1.30038 -0.00178074 0)
(1.30206 -0.00176585 0)
(1.30373 -0.00175103 0)
(1.30539 -0.00173629 0)
(1.30704 -0.00172161 0)
(1.30869 -0.001707 0)
(1.31032 -0.00169246 0)
(1.31195 -0.00167799 0)
(1.31357 -0.00166359 0)
(1.31518 -0.00164925 0)
(1.31679 -0.00163499 0)
(1.31839 -0.00162078 0)
(1.31998 -0.00160665 0)
(1.32156 -0.00159258 0)
(1.32313 -0.00157857 0)
(1.3247 -0.00156463 0)
(1.32625 -0.00155076 0)
(1.3278 -0.00153695 0)
(1.32934 -0.0015232 0)
(1.33088 -0.00150952 0)
(1.3324 -0.00149591 0)
(1.33392 -0.00148236 0)
(1.33543 -0.00146888 0)
(1.33693 -0.00145546 0)
(1.33842 -0.0014421 0)
(1.3399 -0.00142881 0)
(1.34138 -0.00141559 0)
(1.34285 -0.00140243 0)
(1.34431 -0.00138934 0)
(1.34576 -0.00137632 0)
(1.3472 -0.00136336 0)
(1.34864 -0.00135046 0)
(1.35006 -0.00133764 0)
(1.35148 -0.00132488 0)
(1.35289 -0.00131219 0)
(1.35429 -0.00129956 0)
(1.35569 -0.001287 0)
(1.35707 -0.00127452 0)
(1.35845 -0.00126209 0)
(1.35982 -0.00124974 0)
(1.36118 -0.00123746 0)
(1.36253 -0.00122524 0)
(1.36388 -0.0012131 0)
(1.36521 -0.00120102 0)
(1.36654 -0.00118901 0)
(1.36786 -0.00117708 0)
(1.36917 -0.00116521 0)
(1.37047 -0.00115341 0)
(1.37176 -0.00114169 0)
(1.37305 -0.00113003 0)
(1.37433 -0.00111845 0)
(1.3756 -0.00110694 0)
(1.37686 -0.0010955 0)
(1.37811 -0.00108413 0)
(1.37935 -0.00107284 0)
(1.38059 -0.00106161 0)
(1.38182 -0.00105046 0)
(1.38304 -0.00103939 0)
(1.38425 -0.00102838 0)
(1.38545 -0.00101745 0)
(1.38665 -0.00100659 0)
(1.38783 -0.000995805 0)
(1.38901 -0.000985093 0)
(1.39018 -0.000974455 0)
(1.39134 -0.00096389 0)
(1.39249 -0.000953399 0)
(1.39364 -0.000942982 0)
(1.39478 -0.000932639 0)
(1.3959 -0.00092237 0)
(1.39702 -0.000912175 0)
(1.39814 -0.000902054 0)
(1.39924 -0.000892008 0)
(1.40034 -0.000882035 0)
(1.40142 -0.000872137 0)
(1.4025 -0.000862312 0)
(1.40357 -0.000852562 0)
(1.40464 -0.000842886 0)
(1.40569 -0.000833284 0)
(1.40674 -0.000823756 0)
(1.40778 -0.000814302 0)
(1.40881 -0.000804922 0)
(1.40983 -0.000795616 0)
(1.41085 -0.000786383 0)
(1.41186 -0.000777224 0)
(1.41286 -0.000768139 0)
(1.41385 -0.000759127 0)
(1.41483 -0.000750189 0)
(1.41581 -0.000741323 0)
(1.41677 -0.00073253 0)
(1.41773 -0.000723811 0)
(1.41869 -0.000715163 0)
(1.41963 -0.000706589 0)
(1.42057 -0.000698086 0)
(1.4215 -0.000689656 0)
(1.42242 -0.000681298 0)
(1.42333 -0.000673011 0)
(1.42424 -0.000664796 0)
(1.42513 -0.000656652 0)
(1.42602 -0.000648578 0)
(1.42691 -0.000640576 0)
(1.42778 -0.000632644 0)
(1.42865 -0.000624782 0)
(1.42951 -0.00061699 0)
(1.43036 -0.000609268 0)
(1.43121 -0.000601615 0)
(1.43205 -0.000594032 0)
(1.43288 -0.000586516 0)
(1.4337 -0.00057907 0)
(1.43452 -0.000571691 0)
(1.43532 -0.00056438 0)
(1.43613 -0.000557137 0)
(1.43692 -0.00054996 0)
(1.43771 -0.000542851 0)
(1.43849 -0.000535807 0)
(1.43926 -0.00052883 0)
(1.44002 -0.000521918 0)
(1.44078 -0.000515071 0)
(1.44153 -0.000508289 0)
(1.44228 -0.000501571 0)
(1.44301 -0.000494917 0)
(1.44374 -0.000488326 0)
(1.44446 -0.000481799 0)
(1.44518 -0.000475334 0)
(1.44589 -0.000468931 0)
(1.44659 -0.000462589 0)
(1.44729 -0.000456309 0)
(1.44798 -0.000450089 0)
(1.44866 -0.000443929 0)
(1.44933 -0.000437828 0)
(1.45 -0.000431787 0)
(1.45066 -0.000425803 0)
(1.45132 -0.000419877 0)
(1.45196 -0.000414009 0)
(1.45261 -0.000408196 0)
(1.45324 -0.00040244 0)
(1.45387 -0.000396738 0)
(1.45449 -0.000391091 0)
(1.45511 -0.000385498 0)
(1.45571 -0.000379957 0)
(1.45632 -0.000374469 0)
(1.45691 -0.000369031 0)
(1.4575 -0.000363645 0)
(1.45809 -0.000358308 0)
(1.45866 -0.00035302 0)
(1.45923 -0.000347781 0)
(1.4598 -0.000342588 0)
(1.46035 -0.000337441 0)
(1.46091 -0.00033234 0)
(1.46145 -0.000327283 0)
(1.46199 -0.000322269 0)
(1.46252 -0.000317297 0)
(1.46305 -0.000312366 0)
(1.46357 -0.000307476 0)
(1.46408 -0.000302624 0)
(1.46459 -0.000297811 0)
(1.46509 -0.000293034 0)
(1.46559 -0.000288292 0)
(1.46608 -0.000283585 0)
(1.46656 -0.000278911 0)
(1.46704 -0.00027427 0)
(1.46751 -0.000269659 0)
(1.46797 -0.000265078 0)
(1.46843 -0.000260525 0)
(1.46888 -0.000256 0)
(1.46933 -0.0002515 0)
(1.46977 -0.000247026 0)
(1.4702 -0.000242576 0)
(1.47063 -0.000238148 0)
(1.47105 -0.000233742 0)
(1.47147 -0.000229356 0)
(1.47187 -0.000224991 0)
(1.47228 -0.000220643 0)
(1.47267 -0.000216314 0)
(1.47306 -0.000212001 0)
(1.47345 -0.000207705 0)
(1.47382 -0.000203424 0)
(1.47419 -0.000199158 0)
(1.47456 -0.000194906 0)
(1.47491 -0.000190668 0)
(1.47527 -0.000186444 0)
(1.47561 -0.000182233 0)
(1.47595 -0.000178036 0)
(1.47628 -0.000173851 0)
(1.4766 -0.000169681 0)
(1.47692 -0.000165523 0)
(1.47723 -0.00016138 0)
(1.47754 -0.000157252 0)
(1.47784 -0.000153139 0)
(1.47813 -0.000149042 0)
(1.47841 -0.000144963 0)
(1.47869 -0.000140901 0)
(1.47896 -0.00013686 0)
(1.47922 -0.000132839 0)
(1.47948 -0.000128841 0)
(1.47973 -0.000124866 0)
(1.47997 -0.000120918 0)
(1.48021 -0.000116998 0)
(1.48044 -0.000113107 0)
(1.48066 -0.000109249 0)
(1.48088 -0.000105426 0)
(1.48109 -0.000101639 0)
(1.48129 -9.78909e-05 0)
(1.48148 -9.4185e-05 0)
(1.48167 -9.05236e-05 0)
(1.48185 -8.69092e-05 0)
(1.48203 -8.33446e-05 0)
(1.4822 -7.98325e-05 0)
(1.48236 -7.63757e-05 0)
(1.48251 -7.29768e-05 0)
(1.48266 -6.96385e-05 0)
(1.4828 -6.63636e-05 0)
(1.48294 -6.31548e-05 0)
(1.48307 -6.00144e-05 0)
(1.48319 -5.69451e-05 0)
(1.48331 -5.39491e-05 0)
(1.48342 -5.10289e-05 0)
(1.48353 -4.81865e-05 0)
(1.48363 -4.5424e-05 0)
(1.48372 -4.27433e-05 0)
(1.48381 -4.01461e-05 0)
(1.4839 -3.76339e-05 0)
(1.48398 -3.52081e-05 0)
(1.48405 -3.28699e-05 0)
(1.48412 -3.06203e-05 0)
(1.48419 -2.84601e-05 0)
(1.48425 -2.63897e-05 0)
(1.4843 -2.44096e-05 0)
(1.48436 -2.25198e-05 0)
(1.48441 -2.07204e-05 0)
(1.48445 -1.90108e-05 0)
(1.48449 -1.73906e-05 0)
(1.48453 -1.5859e-05 0)
(1.48456 -1.44151e-05 0)
(1.48459 -1.30574e-05 0)
(1.48462 -1.17847e-05 0)
(1.48465 -1.05952e-05 0)
(1.48467 -9.48715e-06 0)
(1.48469 -8.45836e-06 0)
(1.48471 -7.5066e-06 0)
(1.48473 -6.62939e-06 0)
(1.48474 -5.82416e-06 0)
(1.48475 -5.08811e-06 0)
(1.48477 -4.41829e-06 0)
(1.48478 -3.81164e-06 0)
(1.48478 -3.26501e-06 0)
(1.48479 -2.77513e-06 0)
(1.4848 -2.33863e-06 0)
(1.4848 -1.95212e-06 0)
(1.48481 -1.61224e-06 0)
(1.48481 -1.3155e-06 0)
(1.48481 -1.05846e-06 0)
(1.48481 -8.37788e-07 0)
(1.48482 -6.5017e-07 0)
(1.48482 -4.9234e-07 0)
(1.48482 -3.61182e-07 0)
(1.48482 -2.53717e-07 0)
(1.48482 -1.67093e-07 0)
(1.48482 -9.85991e-08 0)
(1.48482 -4.57025e-08 0)
(1.48482 -6.1048e-09 0)
(1.48482 2.23406e-08 0)
(1.48482 4.1584e-08 0)
(1.48482 5.3385e-08 0)
(1.48482 5.92747e-08 0)
(1.48482 6.05786e-08 0)
(1.48482 5.85023e-08 0)
(1.48482 5.40345e-08 0)
(1.48482 4.79712e-08 0)
(1.48482 4.10137e-08 0)
(1.48482 3.36923e-08 0)
(1.48482 2.63886e-08 0)
(1.48482 1.94288e-08 0)
(1.48482 1.30522e-08 0)
(1.48482 7.34852e-09 0)
(1.48482 2.40055e-09 0)
(1.48482 -1.7725e-09 0)
(1.48482 -5.18073e-09 0)
(1.48482 -7.86785e-09 0)
(1.48482 -9.93216e-09 0)
(1.48482 -1.14099e-08 0)
(1.48482 -1.23843e-08 0)
(1.48482 -1.30046e-08 0)
(1.48482 -1.32731e-08 0)
(1.48482 -1.32426e-08 0)
(1.48482 -1.30876e-08 0)
(1.48482 -1.27602e-08 0)
(1.48482 -1.23114e-08 0)
(1.48482 -1.18751e-08 0)
(1.48482 -1.13793e-08 0)
(1.48482 -1.08979e-08 0)
(1.48482 -1.04187e-08 0)
(1.48482 -9.93964e-09 0)
(1.48482 -9.54017e-09 0)
(1.48482 -9.15539e-09 0)
(1.48482 -8.79425e-09 0)
(1.48482 -8.46582e-09 0)
(1.48482 -8.19427e-09 0)
(1.48482 -7.92468e-09 0)
(1.48482 -7.6855e-09 0)
(1.48482 -7.45547e-09 0)
(1.48482 -7.25713e-09 0)
(1.48482 -7.07866e-09 0)
(1.48482 -6.89176e-09 0)
(1.48482 -6.70898e-09 0)
(1.48482 -6.57393e-09 0)
(1.48482 -6.42422e-09 0)
(1.48482 -6.24113e-09 0)
(1.48482 -6.12391e-09 0)
(1.48482 -5.98345e-09 0)
(1.48482 -5.83451e-09 0)
(1.48482 -5.71077e-09 0)
(1.48482 -5.5937e-09 0)
(1.48482 -5.46574e-09 0)
(1.48482 -5.2963e-09 0)
(1.48482 -5.21718e-09 0)
(1.48482 -5.1008e-09 0)
(1.48482 -4.95853e-09 0)
(1.48482 -4.86179e-09 0)
(1.48482 -4.76798e-09 0)
(1.48482 -4.63034e-09 0)
(1.48482 -4.54082e-09 0)
(1.48482 -4.44479e-09 0)
(1.48482 -4.34857e-09 0)
(1.48482 -4.26199e-09 0)
(1.48482 -4.1455e-09 0)
(1.48482 -4.06634e-09 0)
(1.48482 -3.99807e-09 0)
(1.48482 -3.86804e-09 0)
(1.48482 -3.81944e-09 0)
(1.48482 -3.72149e-09 0)
(1.48482 -3.62147e-09 0)
(1.48482 -3.56235e-09 0)
(1.48482 -3.48637e-09 0)
(1.48482 -3.407e-09 0)
(1.48482 -3.30026e-09 0)
(1.48482 -3.26959e-09 0)
(1.48482 -3.19738e-09 0)
(1.48482 -3.10988e-09 0)
(1.48482 -3.05601e-09 0)
(1.48482 -3.00124e-09 0)
(1.48482 -2.95405e-09 0)
(1.48482 -2.88013e-09 0)
(1.48482 -2.8339e-09 0)
(1.48482 -2.782e-09 0)
(1.48482 -2.73227e-09 0)
(1.48482 -2.6633e-09 0)
(1.48482 -2.66472e-09 0)
(1.48482 -2.57626e-09 0)
(1.48482 -2.52081e-09 0)
(1.48482 -2.50749e-09 0)
(1.48482 -2.43452e-09 0)
(1.48482 -2.39542e-09 0)
(1.48482 -2.35921e-09 0)
(1.48482 -2.27974e-09 0)
(1.48482 -2.27261e-09 0)
(1.48482 -2.2287e-09 0)
(1.48482 -2.13879e-09 0)
(1.48482 -2.1456e-09 0)
(1.48482 -2.07288e-09 0)
(1.48482 -2.05391e-09 0)
(1.48482 -2.00519e-09 0)
(1.48482 -1.988e-09 0)
(1.48482 -1.93619e-09 0)
(1.48482 -1.90781e-09 0)
(1.48482 -1.86643e-09 0)
(1.48482 -1.8318e-09 0)
(1.48482 -1.84509e-09 0)
(1.48482 -1.74257e-09 0)
(1.48482 -1.79808e-09 0)
(1.48482 -1.72239e-09 0)
(1.48482 -1.70097e-09 0)
(1.48482 -1.67909e-09 0)
(1.48482 -1.65814e-09 0)
(1.48482 -1.62725e-09 0)
(1.48482 -1.59795e-09 0)
(1.48482 -1.60816e-09 0)
(1.48482 -1.51374e-09 0)
(1.48482 -1.54861e-09 0)
(1.48482 -1.49118e-09 0)
(1.48482 -1.47454e-09 0)
(1.48482 -1.43181e-09 0)
(1.48482 -1.42203e-09 0)
(1.48482 -1.39737e-09 0)
(1.48482 -1.36814e-09 0)
(1.48482 -1.34769e-09 0)
(1.48482 -1.33944e-09 0)
(1.48482 -1.33685e-09 0)
(1.48482 -1.253e-09 0)
(1.48482 -1.27928e-09 0)
(1.48482 -1.27822e-09 0)
(1.48482 -1.24606e-09 0)
(1.48482 -1.2355e-09 0)
(1.48482 -1.20591e-09 0)
(1.48482 -1.21195e-09 0)
(1.48482 -1.18783e-09 0)
(1.48482 -1.15963e-09 0)
(1.48482 -1.16622e-09 0)
(1.48482 -1.13415e-09 0)
(1.48482 -1.12816e-09 0)
(1.48482 -1.08971e-09 0)
(1.48482 -1.05984e-09 0)
(1.48482 -1.09388e-09 0)
(1.48482 -1.07213e-09 0)
(1.48482 -1.01013e-09 0)
(1.48482 -1.00905e-09 0)
(1.48482 -9.89127e-10 0)
(1.48482 -9.59282e-10 0)
(1.48482 -9.79167e-10 0)
(1.48482 -9.39237e-10 0)
(1.48482 -8.88952e-10 0)
(1.48482 -9.17381e-10 0)
(1.48482 -8.81416e-10 0)
(1.48482 -8.80938e-10 0)
(1.48482 -8.52755e-10 0)
(1.48482 -8.52844e-10 0)
(1.48482 -8.19084e-10 0)
(1.48482 -8.67567e-10 0)
(1.48482 -7.87782e-10 0)
(1.48482 -8.56186e-10 0)
(1.48482 -8.43331e-10 0)
(1.48482 -8.49049e-10 0)
(1.48482 -8.09792e-10 0)
(1.48482 -8.24515e-10 0)
(1.48482 -8.31186e-10 0)
(1.48482 -7.80284e-10 0)
(1.48482 -7.97554e-10 0)
(1.48482 -7.84537e-10 0)
(1.48482 -7.89201e-10 0)
(1.48482 -7.60074e-10 0)
(1.48482 -7.22486e-10 0)
(1.48482 -7.70131e-10 0)
(1.48482 -7.10322e-10 0)
(1.48482 -7.38622e-10 0)
(1.48482 -6.24994e-10 0)
(1.48482 -6.66889e-10 0)
(1.48482 -5.39421e-10 0)
(1.48482 -5.50868e-10 0)
(1.48482 -4.07688e-10 0)
(1.48482 -1.41099e-11 0)
(1.00001 -0.000165029 0)
(1.00006 -0.000496284 0)
(1.00017 -0.000828892 0)
(1.00035 -0.00116233 0)
(1.00059 -0.00149611 0)
(1.00089 -0.00182973 0)
(1.00125 -0.00216271 0)
(1.00167 -0.00249454 0)
(1.00215 -0.00282473 0)
(1.00269 -0.00315276 0)
(1.0033 -0.00347815 0)
(1.00397 -0.00380042 0)
(1.00469 -0.00411907 0)
(1.00548 -0.00443365 0)
(1.00633 -0.0047437 0)
(1.00725 -0.00504878 0)
(1.00822 -0.00534846 0)
(1.00925 -0.00564235 0)
(1.01033 -0.00593005 0)
(1.01148 -0.00621121 0)
(1.01268 -0.00648549 0)
(1.01394 -0.00675258 0)
(1.01525 -0.00701217 0)
(1.01662 -0.00726402 0)
(1.01804 -0.00750788 0)
(1.01951 -0.00774354 0)
(1.02103 -0.00797083 0)
(1.0226 -0.00818957 0)
(1.02422 -0.00839965 0)
(1.02588 -0.00860096 0)
(1.02758 -0.00879342 0)
(1.02933 -0.00897699 0)
(1.03113 -0.00915164 0)
(1.03296 -0.00931735 0)
(1.03483 -0.00947417 0)
(1.03673 -0.00962212 0)
(1.03868 -0.00976128 0)
(1.04065 -0.00989172 0)
(1.04266 -0.0100135 0)
(1.0447 -0.0101269 0)
(1.04677 -0.0102319 0)
(1.04887 -0.0103286 0)
(1.05099 -0.0104174 0)
(1.05314 -0.0104982 0)
(1.05531 -0.0105714 0)
(1.0575 -0.0106371 0)
(1.05972 -0.0106955 0)
(1.06195 -0.0107469 0)
(1.0642 -0.0107914 0)
(1.06647 -0.0108293 0)
(1.06876 -0.0108608 0)
(1.07106 -0.0108861 0)
(1.07337 -0.0109054 0)
(1.07569 -0.0109191 0)
(1.07802 -0.0109273 0)
(1.08037 -0.0109302 0)
(1.08272 -0.0109281 0)
(1.08508 -0.0109213 0)
(1.08745 -0.0109099 0)
(1.08982 -0.0108941 0)
(1.0922 -0.0108742 0)
(1.09458 -0.0108505 0)
(1.09696 -0.010823 0)
(1.09935 -0.0107921 0)
(1.10174 -0.0107578 0)
(1.10413 -0.0107205 0)
(1.10651 -0.0106803 0)
(1.1089 -0.0106374 0)
(1.11129 -0.0105919 0)
(1.11368 -0.010544 0)
(1.11606 -0.010494 0)
(1.11844 -0.0104419 0)
(1.12082 -0.0103879 0)
(1.1232 -0.0103322 0)
(1.12557 -0.0102749 0)
(1.12793 -0.0102161 0)
(1.13029 -0.010156 0)
(1.13265 -0.0100947 0)
(1.135 -0.0100323 0)
(1.13734 -0.00996888 0)
(1.13968 -0.0099046 0)
(1.14201 -0.00983955 0)
(1.14434 -0.00977381 0)
(1.14665 -0.00970749 0)
(1.14896 -0.00964066 0)
(1.15127 -0.00957341 0)
(1.15356 -0.00950581 0)
(1.15585 -0.00943792 0)
(1.15813 -0.00936983 0)
(1.1604 -0.00930159 0)
(1.16266 -0.00923326 0)
(1.16492 -0.00916489 0)
(1.16716 -0.00909653 0)
(1.1694 -0.00902823 0)
(1.17163 -0.00896004 0)
(1.17385 -0.00889199 0)
(1.17606 -0.00882412 0)
(1.17826 -0.00875647 0)
(1.18046 -0.00868906 0)
(1.18264 -0.00862192 0)
(1.18482 -0.00855508 0)
(1.18698 -0.00848857 0)
(1.18914 -0.0084224 0)
(1.19129 -0.00835659 0)
(1.19343 -0.00829116 0)
(1.19556 -0.00822613 0)
(1.19768 -0.0081615 0)
(1.19979 -0.00809729 0)
(1.2019 -0.0080335 0)
(1.20399 -0.00797016 0)
(1.20608 -0.00790725 0)
(1.20815 -0.00784479 0)
(1.21022 -0.00778279 0)
(1.21228 -0.00772123 0)
(1.21432 -0.00766014 0)
(1.21636 -0.0075995 0)
(1.21839 -0.00753932 0)
(1.22042 -0.00747959 0)
(1.22243 -0.00742032 0)
(1.22443 -0.0073615 0)
(1.22643 -0.00730313 0)
(1.22841 -0.00724521 0)
(1.23039 -0.00718773 0)
(1.23236 -0.00713069 0)
(1.23432 -0.00707408 0)
(1.23627 -0.0070179 0)
(1.23821 -0.00696215 0)
(1.24014 -0.0069068 0)
(1.24207 -0.00685187 0)
(1.24398 -0.00679735 0)
(1.24589 -0.00674322 0)
(1.24779 -0.00668949 0)
(1.24968 -0.00663614 0)
(1.25156 -0.00658316 0)
(1.25343 -0.00653057 0)
(1.25529 -0.00647833 0)
(1.25715 -0.00642646 0)
(1.259 -0.00637494 0)
(1.26083 -0.00632376 0)
(1.26266 -0.00627292 0)
(1.26448 -0.00622242 0)
(1.2663 -0.00617224 0)
(1.2681 -0.00612239 0)
(1.2699 -0.00607284 0)
(1.27168 -0.00602361 0)
(1.27346 -0.00597468 0)
(1.27523 -0.00592605 0)
(1.277 -0.00587771 0)
(1.27875 -0.00582965 0)
(1.28049 -0.00578188 0)
(1.28223 -0.00573438 0)
(1.28396 -0.00568716 0)
(1.28568 -0.0056402 0)
(1.28739 -0.00559351 0)
(1.28909 -0.00554707 0)
(1.29079 -0.00550089 0)
(1.29248 -0.00545496 0)
(1.29416 -0.00540928 0)
(1.29583 -0.00536384 0)
(1.29749 -0.00531865 0)
(1.29914 -0.00527369 0)
(1.30079 -0.00522896 0)
(1.30242 -0.00518447 0)
(1.30405 -0.00514021 0)
(1.30567 -0.00509617 0)
(1.30728 -0.00505236 0)
(1.30889 -0.00500877 0)
(1.31048 -0.0049654 0)
(1.31207 -0.00492225 0)
(1.31365 -0.00487932 0)
(1.31522 -0.00483661 0)
(1.31678 -0.0047941 0)
(1.31833 -0.00475182 0)
(1.31988 -0.00470974 0)
(1.32141 -0.00466788 0)
(1.32294 -0.00462622 0)
(1.32446 -0.00458478 0)
(1.32597 -0.00454355 0)
(1.32748 -0.00450252 0)
(1.32897 -0.0044617 0)
(1.33046 -0.00442109 0)
(1.33194 -0.00438069 0)
(1.33341 -0.0043405 0)
(1.33487 -0.00430051 0)
(1.33632 -0.00426073 0)
(1.33777 -0.00422116 0)
(1.3392 -0.00418179 0)
(1.34063 -0.00414263 0)
(1.34205 -0.00410368 0)
(1.34346 -0.00406494 0)
(1.34486 -0.00402641 0)
(1.34626 -0.00398808 0)
(1.34765 -0.00394996 0)
(1.34902 -0.00391206 0)
(1.35039 -0.00387436 0)
(1.35175 -0.00383687 0)
(1.35311 -0.00379959 0)
(1.35445 -0.00376253 0)
(1.35579 -0.00372567 0)
(1.35712 -0.00368903 0)
(1.35844 -0.0036526 0)
(1.35975 -0.00361638 0)
(1.36105 -0.00358038 0)
(1.36235 -0.00354459 0)
(1.36363 -0.00350902 0)
(1.36491 -0.00347366 0)
(1.36618 -0.00343851 0)
(1.36744 -0.00340359 0)
(1.36869 -0.00336887 0)
(1.36994 -0.00333438 0)
(1.37118 -0.0033001 0)
(1.3724 -0.00326605 0)
(1.37362 -0.00323221 0)
(1.37484 -0.00319858 0)
(1.37604 -0.00316518 0)
(1.37724 -0.003132 0)
(1.37842 -0.00309904 0)
(1.3796 -0.00306629 0)
(1.38077 -0.00303377 0)
(1.38194 -0.00300147 0)
(1.38309 -0.00296939 0)
(1.38424 -0.00293753 0)
(1.38538 -0.00290589 0)
(1.38651 -0.00287448 0)
(1.38763 -0.00284328 0)
(1.38874 -0.00281231 0)
(1.38985 -0.00278156 0)
(1.39095 -0.00275103 0)
(1.39204 -0.00272072 0)
(1.39312 -0.00269064 0)
(1.39419 -0.00266078 0)
(1.39526 -0.00263114 0)
(1.39632 -0.00260172 0)
(1.39737 -0.00257252 0)
(1.39841 -0.00254354 0)
(1.39944 -0.00251479 0)
(1.40047 -0.00248626 0)
(1.40149 -0.00245794 0)
(1.4025 -0.00242985 0)
(1.4035 -0.00240198 0)
(1.40449 -0.00237433 0)
(1.40548 -0.0023469 0)
(1.40646 -0.00231968 0)
(1.40743 -0.00229269 0)
(1.4084 -0.00226592 0)
(1.40935 -0.00223936 0)
(1.4103 -0.00221302 0)
(1.41124 -0.0021869 0)
(1.41218 -0.00216099 0)
(1.4131 -0.0021353 0)
(1.41402 -0.00210983 0)
(1.41493 -0.00208457 0)
(1.41583 -0.00205952 0)
(1.41673 -0.00203469 0)
(1.41762 -0.00201007 0)
(1.4185 -0.00198566 0)
(1.41937 -0.00196147 0)
(1.42024 -0.00193748 0)
(1.4211 -0.00191371 0)
(1.42195 -0.00189014 0)
(1.42279 -0.00186678 0)
(1.42363 -0.00184363 0)
(1.42446 -0.00182069 0)
(1.42528 -0.00179795 0)
(1.4261 -0.00177542 0)
(1.4269 -0.00175309 0)
(1.4277 -0.00173096 0)
(1.4285 -0.00170904 0)
(1.42928 -0.00168731 0)
(1.43006 -0.00166579 0)
(1.43084 -0.00164447 0)
(1.4316 -0.00162334 0)
(1.43236 -0.00160241 0)
(1.43311 -0.00158167 0)
(1.43386 -0.00156113 0)
(1.43459 -0.00154079 0)
(1.43533 -0.00152063 0)
(1.43605 -0.00150067 0)
(1.43677 -0.00148089 0)
(1.43748 -0.00146131 0)
(1.43818 -0.00144191 0)
(1.43888 -0.00142269 0)
(1.43957 -0.00140366 0)
(1.44025 -0.00138482 0)
(1.44093 -0.00136615 0)
(1.4416 -0.00134767 0)
(1.44226 -0.00132936 0)
(1.44292 -0.00131123 0)
(1.44357 -0.00129328 0)
(1.44422 -0.0012755 0)
(1.44485 -0.00125789 0)
(1.44549 -0.00124045 0)
(1.44611 -0.00122318 0)
(1.44673 -0.00120608 0)
(1.44734 -0.00118914 0)
(1.44795 -0.00117236 0)
(1.44855 -0.00115575 0)
(1.44914 -0.00113929 0)
(1.44973 -0.00112299 0)
(1.45031 -0.00110685 0)
(1.45089 -0.00109086 0)
(1.45146 -0.00107501 0)
(1.45202 -0.00105932 0)
(1.45258 -0.00104377 0)
(1.45313 -0.00102836 0)
(1.45367 -0.00101309 0)
(1.45421 -0.00099796 0)
(1.45474 -0.000982964 0)
(1.45527 -0.0009681 0)
(1.45579 -0.000953365 0)
(1.4563 -0.000938755 0)
(1.45681 -0.000924268 0)
(1.45732 -0.000909901 0)
(1.45781 -0.000895651 0)
(1.4583 -0.000881514 0)
(1.45879 -0.000867487 0)
(1.45927 -0.000853567 0)
(1.45974 -0.000839751 0)
(1.46021 -0.000826034 0)
(1.46067 -0.000812414 0)
(1.46112 -0.000798888 0)
(1.46157 -0.000785451 0)
(1.46202 -0.0007721 0)
(1.46245 -0.000758832 0)
(1.46288 -0.000745643 0)
(1.46331 -0.00073253 0)
(1.46373 -0.00071949 0)
(1.46414 -0.000706518 0)
(1.46455 -0.000693613 0)
(1.46495 -0.00068077 0)
(1.46535 -0.000667987 0)
(1.46574 -0.00065526 0)
(1.46612 -0.000642588 0)
(1.4665 -0.000629967 0)
(1.46687 -0.000617395 0)
(1.46724 -0.000604869 0)
(1.4676 -0.000592389 0)
(1.46795 -0.000579951 0)
(1.4683 -0.000567555 0)
(1.46864 -0.000555199 0)
(1.46897 -0.000542883 0)
(1.4693 -0.000530605 0)
(1.46962 -0.000518366 0)
(1.46994 -0.000506165 0)
(1.47025 -0.000494004 0)
(1.47055 -0.000481882 0)
(1.47085 -0.000469802 0)
(1.47114 -0.000457764 0)
(1.47142 -0.000445771 0)
(1.4717 -0.000433825 0)
(1.47197 -0.00042193 0)
(1.47224 -0.000410088 0)
(1.47249 -0.000398303 0)
(1.47275 -0.000386579 0)
(1.47299 -0.000374922 0)
(1.47323 -0.000363335 0)
(1.47346 -0.000351824 0)
(1.47368 -0.000340395 0)
(1.4739 -0.000329053 0)
(1.47411 -0.000317806 0)
(1.47432 -0.00030666 0)
(1.47452 -0.000295622 0)
(1.47471 -0.000284699 0)
(1.47489 -0.000273898 0)
(1.47507 -0.000263227 0)
(1.47525 -0.000252695 0)
(1.47541 -0.000242308 0)
(1.47557 -0.000232075 0)
(1.47573 -0.000222003 0)
(1.47587 -0.000212102 0)
(1.47601 -0.000202378 0)
(1.47615 -0.000192839 0)
(1.47628 -0.000183494 0)
(1.4764 -0.000174349 0)
(1.47652 -0.000165411 0)
(1.47663 -0.000156689 0)
(1.47674 -0.000148188 0)
(1.47684 -0.000139914 0)
(1.47693 -0.000131874 0)
(1.47702 -0.000124073 0)
(1.47711 -0.000116516 0)
(1.47719 -0.000109207 0)
(1.47726 -0.000102151 0)
(1.47733 -9.53506e-05 0)
(1.4774 -8.88087e-05 0)
(1.47746 -8.25277e-05 0)
(1.47751 -7.65091e-05 0)
(1.47757 -7.07538e-05 0)
(1.47762 -6.52621e-05 0)
(1.47766 -6.00337e-05 0)
(1.4777 -5.50676e-05 0)
(1.47774 -5.03622e-05 0)
(1.47778 -4.59149e-05 0)
(1.47781 -4.1723e-05 0)
(1.47784 -3.77827e-05 0)
(1.47787 -3.40898e-05 0)
(1.47789 -3.06393e-05 0)
(1.47791 -2.74257e-05 0)
(1.47793 -2.44429e-05 0)
(1.47795 -2.16843e-05 0)
(1.47796 -1.91427e-05 0)
(1.47798 -1.68103e-05 0)
(1.47799 -1.4679e-05 0)
(1.478 -1.27403e-05 0)
(1.47801 -1.09851e-05 0)
(1.47802 -9.40418e-06 0)
(1.47802 -7.988e-06 0)
(1.47803 -6.72678e-06 0)
(1.47803 -5.6106e-06 0)
(1.47804 -4.62951e-06 0)
(1.47804 -3.77348e-06 0)
(1.47804 -3.03253e-06 0)
(1.47804 -2.39683e-06 0)
(1.47805 -1.85672e-06 0)
(1.47805 -1.40282e-06 0)
(1.47805 -1.02602e-06 0)
(1.47805 -7.17607e-07 0)
(1.47805 -4.6932e-07 0)
(1.47805 -2.73338e-07 0)
(1.47805 -1.22354e-07 0)
(1.47805 -9.62018e-09 0)
(1.47805 7.10876e-08 0)
(1.47805 1.25363e-07 0)
(1.47805 1.5823e-07 0)
(1.47805 1.74182e-07 0)
(1.47805 1.77129e-07 0)
(1.47805 1.70414e-07 0)
(1.47805 1.5687e-07 0)
(1.47805 1.38876e-07 0)
(1.47805 1.18384e-07 0)
(1.47805 9.69167e-08 0)
(1.47805 7.56361e-08 0)
(1.47805 5.54191e-08 0)
(1.47805 3.6865e-08 0)
(1.47805 2.03156e-08 0)
(1.47805 6.00381e-09 0)
(1.47805 -6.01307e-09 0)
(1.47805 -1.58382e-08 0)
(1.47805 -2.35887e-08 0)
(1.47805 -2.94652e-08 0)
(1.47805 -3.37172e-08 0)
(1.47805 -3.65193e-08 0)
(1.47805 -3.81688e-08 0)
(1.47805 -3.89034e-08 0)
(1.47805 -3.88509e-08 0)
(1.47805 -3.82722e-08 0)
(1.47805 -3.73394e-08 0)
(1.47805 -3.61205e-08 0)
(1.47805 -3.47489e-08 0)
(1.47805 -3.32991e-08 0)
(1.47805 -3.1872e-08 0)
(1.47805 -3.05089e-08 0)
(1.47805 -2.91942e-08 0)
(1.47805 -2.79687e-08 0)
(1.47805 -2.68359e-08 0)
(1.47805 -2.5815e-08 0)
(1.47805 -2.48774e-08 0)
(1.47805 -2.40526e-08 0)
(1.47805 -2.32901e-08 0)
(1.47805 -2.25867e-08 0)
(1.47805 -2.19132e-08 0)
(1.47805 -2.13241e-08 0)
(1.47805 -2.08178e-08 0)
(1.47805 -2.02898e-08 0)
(1.47805 -1.97382e-08 0)
(1.47805 -1.92828e-08 0)
(1.47805 -1.88728e-08 0)
(1.47805 -1.84084e-08 0)
(1.47805 -1.79709e-08 0)
(1.47805 -1.75631e-08 0)
(1.47805 -1.71416e-08 0)
(1.47805 -1.67526e-08 0)
(1.47805 -1.63927e-08 0)
(1.47805 -1.60072e-08 0)
(1.47805 -1.55889e-08 0)
(1.47805 -1.52559e-08 0)
(1.47805 -1.49236e-08 0)
(1.47805 -1.45625e-08 0)
(1.47805 -1.42282e-08 0)
(1.47805 -1.39236e-08 0)
(1.47805 -1.35827e-08 0)
(1.47805 -1.32928e-08 0)
(1.47805 -1.29943e-08 0)
(1.47805 -1.2698e-08 0)
(1.47805 -1.24429e-08 0)
(1.47805 -1.21559e-08 0)
(1.47805 -1.18603e-08 0)
(1.47805 -1.16262e-08 0)
(1.47805 -1.13529e-08 0)
(1.47805 -1.11251e-08 0)
(1.47805 -1.08713e-08 0)
(1.47805 -1.06282e-08 0)
(1.47805 -1.0403e-08 0)
(1.47805 -1.01726e-08 0)
(1.47805 -9.97543e-09 0)
(1.47805 -9.73485e-09 0)
(1.47805 -9.54447e-09 0)
(1.47805 -9.37521e-09 0)
(1.47805 -9.16236e-09 0)
(1.47805 -8.9657e-09 0)
(1.47805 -8.8001e-09 0)
(1.47805 -8.65342e-09 0)
(1.47805 -8.4635e-09 0)
(1.47805 -8.30762e-09 0)
(1.47805 -8.14125e-09 0)
(1.47805 -8.00164e-09 0)
(1.47805 -7.82707e-09 0)
(1.47805 -7.71224e-09 0)
(1.47805 -7.55132e-09 0)
(1.47805 -7.37634e-09 0)
(1.47805 -7.28608e-09 0)
(1.47805 -7.12281e-09 0)
(1.47805 -6.97365e-09 0)
(1.47805 -6.87924e-09 0)
(1.47805 -6.72472e-09 0)
(1.47805 -6.60684e-09 0)
(1.47805 -6.48876e-09 0)
(1.47805 -6.33959e-09 0)
(1.47805 -6.25727e-09 0)
(1.47805 -6.13237e-09 0)
(1.47805 -6.02955e-09 0)
(1.47805 -5.9044e-09 0)
(1.47805 -5.81526e-09 0)
(1.47805 -5.71607e-09 0)
(1.47805 -5.60423e-09 0)
(1.47805 -5.52086e-09 0)
(1.47805 -5.41536e-09 0)
(1.47805 -5.34528e-09 0)
(1.47805 -5.22733e-09 0)
(1.47805 -5.17341e-09 0)
(1.47805 -5.06478e-09 0)
(1.47805 -4.98033e-09 0)
(1.47805 -4.89524e-09 0)
(1.47805 -4.82661e-09 0)
(1.47805 -4.72826e-09 0)
(1.47805 -4.6563e-09 0)
(1.47805 -4.60865e-09 0)
(1.47805 -4.48062e-09 0)
(1.47805 -4.4401e-09 0)
(1.47805 -4.352e-09 0)
(1.47805 -4.29888e-09 0)
(1.47805 -4.21909e-09 0)
(1.47805 -4.15165e-09 0)
(1.47805 -4.09224e-09 0)
(1.47805 -4.02382e-09 0)
(1.47805 -3.97109e-09 0)
(1.47805 -3.911e-09 0)
(1.47805 -3.84788e-09 0)
(1.47805 -3.77531e-09 0)
(1.47805 -3.74672e-09 0)
(1.47805 -3.66966e-09 0)
(1.47805 -3.63669e-09 0)
(1.47805 -3.58439e-09 0)
(1.47805 -3.53282e-09 0)
(1.47805 -3.50939e-09 0)
(1.47805 -3.43865e-09 0)
(1.47805 -3.39171e-09 0)
(1.47805 -3.35689e-09 0)
(1.47805 -3.2994e-09 0)
(1.47805 -3.25972e-09 0)
(1.47805 -3.21144e-09 0)
(1.47805 -3.15576e-09 0)
(1.47805 -3.12612e-09 0)
(1.47805 -3.0824e-09 0)
(1.47805 -3.02027e-09 0)
(1.47805 -2.97729e-09 0)
(1.47805 -2.94404e-09 0)
(1.47805 -2.88331e-09 0)
(1.47805 -2.85195e-09 0)
(1.47805 -2.79116e-09 0)
(1.47805 -2.74126e-09 0)
(1.47805 -2.70965e-09 0)
(1.47805 -2.66624e-09 0)
(1.47805 -2.60836e-09 0)
(1.47805 -2.58682e-09 0)
(1.47805 -2.56847e-09 0)
(1.47805 -2.49739e-09 0)
(1.47805 -2.48684e-09 0)
(1.47805 -2.45167e-09 0)
(1.47805 -2.44278e-09 0)
(1.47805 -2.4048e-09 0)
(1.47805 -2.37933e-09 0)
(1.47805 -2.3495e-09 0)
(1.47805 -2.34095e-09 0)
(1.47805 -2.29675e-09 0)
(1.47805 -2.2836e-09 0)
(1.47805 -2.23578e-09 0)
(1.47805 -2.22432e-09 0)
(1.47805 -2.19715e-09 0)
(1.47805 -2.16948e-09 0)
(1.47805 -2.09381e-09 0)
(1.47805 -2.11982e-09 0)
(1.47805 -2.02328e-09 0)
(1.47805 -2.04189e-09 0)
(1.47805 -1.83603e-09 0)
(1.47805 -1.88894e-09 0)
(1.47805 -1.62994e-09 0)
(1.47805 -1.49409e-09 0)
(1.47805 -1.09641e-09 0)
(1.47805 -1.93424e-10 0)
(1.00001 -0.000273701 0)
(1.00006 -0.000823103 0)
(1.00018 -0.00137475 0)
(1.00037 -0.00192776 0)
(1.00061 -0.00248128 0)