# Probe 0 (0 0 0)
#       Probe             0
#        Time
         0.01       30.6282
         0.02       13.2692
         0.03       11.0262
         0.04       9.24918
         0.05       8.20694
         0.06       7.46086
         0.07       6.90038
         0.08       6.45882
         0.09       6.09964
          0.1       5.80017
         0.11       5.54561
         0.12       5.32586
         0.13       5.13369
         0.14       4.96385
         0.15       4.81234
         0.16       4.67616
         0.17       4.55291
         0.18       4.44069
         0.19       4.33798
          0.2       4.24353
         0.21       4.15631
         0.22       4.07544
         0.23       4.00025
         0.24       3.93008
         0.25       3.86443
         0.26       3.80284
         0.27       3.74492
         0.28       3.69033
         0.29       3.63878
          0.3       3.58999
         0.31       3.54373
         0.32       3.49982
         0.33       3.45806
         0.34       3.41829
         0.35       3.38036
         0.36       3.34414
         0.37       3.30951
         0.38       3.27636
         0.39        3.2446
          0.4       3.21413
         0.41       3.18487
         0.42       3.15675
         0.43        3.1297
         0.44       3.10365
         0.45       3.07854
         0.46       3.05434
         0.47       3.03099
         0.48       3.00844
         0.49       2.98665
          0.5       2.96558
         0.51        2.9452
         0.52       2.92546
         0.53       2.90634
         0.54        2.8878
         0.55       2.86983
         0.56       2.85239
         0.57       2.83547
         0.58       2.81903
         0.59       2.80305
          0.6       2.78752
         0.61       2.77242
         0.62       2.75773
         0.63       2.74343
         0.64       2.72949
         0.65       2.71593
         0.66       2.70272
         0.67       2.68985
         0.68       2.67729
         0.69       2.66504
          0.7        2.6531
         0.71       2.64143
         0.72       2.63005
         0.73       2.61893
         0.74       2.60807
         0.75       2.59746
         0.76       2.58709
         0.77       2.57695
         0.78       2.56703
         0.79       2.55733
          0.8       2.54784
         0.81       2.53856
         0.82       2.52947
         0.83       2.52057
         0.84       2.51186
         0.85       2.50332
         0.86       2.49496
         0.87       2.48677
         0.88       2.47874
         0.89       2.47087
          0.9       2.46316
         0.91       2.45556
         0.92       2.44815
         0.93       2.44087
         0.94       2.43373
         0.95       2.42673
         0.96       2.41985
         0.97        2.4131
         0.98       2.40647
         0.99       2.39997
            1       2.39358
         1.01        2.3873
         1.02       2.38113
         1.03       2.37508
         1.04       2.36912
         1.05       2.36327
         1.06       2.35753
         1.07       2.35187
         1.08       2.34632
         1.09       2.34086
          1.1       2.33548
         1.11        2.3302
         1.12         2.325
         1.13       2.31989
         1.14       2.31486
         1.15       2.30991
         1.16       2.30504
         1.17       2.30025
         1.18       2.29553
         1.19       2.29089
          1.2       2.28632
         1.21       2.28182
         1.22       2.27739
         1.23       2.27303
         1.24       2.26873
         1.25        2.2645
         1.26       2.26033
         1.27       2.25622
         1.28       2.25217
         1.29       2.24815
          1.3       2.24423
         1.31       2.24036
         1.32       2.23655
         1.33       2.23279
         1.34       2.22909
         1.35       2.22544
         1.36       2.22184
         1.37       2.21829
         1.38       2.21479
         1.39       2.21133
          1.4       2.20793
         1.41       2.20457
         1.42       2.20126
         1.43         2.198
         1.44       2.19478
         1.45        2.1916
         1.46       2.18846
         1.47       2.18537
         1.48       2.18232
         1.49       2.17931
          1.5       2.17634
         1.51        2.1734
         1.52       2.17051
         1.53       2.16765
         1.54       2.16484
         1.55       2.16205
         1.56       2.15931
         1.57       2.15659
         1.58       2.15392
         1.59       2.15127
          1.6       2.14866
         1.61       2.14609
         1.62       2.14354
         1.63       2.14103
         1.64       2.13855
         1.65        2.1361
         1.66       2.13368
         1.67       2.13129
         1.68       2.12892
         1.69       2.12659
          1.7       2.12429
         1.71       2.12201
         1.72       2.11976
         1.73       2.11754
         1.74       2.11534
         1.75       2.11318
         1.76       2.11103
         1.77       2.10891
         1.78       2.10682
         1.79       2.10475
          1.8       2.10271
         1.81       2.10069
         1.82       2.09869
         1.83       2.09668
         1.84       2.09474
         1.85       2.09281
         1.86       2.09091
         1.87       2.08903
         1.88       2.08717
         1.89       2.08533
          1.9       2.08351
         1.91       2.08171
         1.92       2.07993
         1.93       2.07817
         1.94       2.07643
         1.95       2.07471
         1.96       2.07301
         1.97       2.07133
         1.98       2.06967
         1.99       2.06802
            2        2.0664
         2.01       2.06479
         2.02        2.0632
         2.03       2.06162
         2.04       2.06007
         2.05       2.05853
         2.06         2.057
         2.07        2.0555
         2.08       2.05401
         2.09       2.05253
          2.1       2.05107
         2.11       2.04963
         2.12        2.0482
         2.13       2.04679
         2.14       2.04539
         2.15       2.04401
         2.16       2.04264
         2.17       2.04129
         2.18       2.03995
         2.19       2.03862
          2.2       2.03731
         2.21       2.03602
         2.22       2.03473
         2.23       2.03346
         2.24        2.0322
         2.25       2.03096
         2.26       2.02973
         2.27       2.02851
         2.28        2.0273
         2.29       2.02611
          2.3       2.02492
         2.31       2.02376
         2.32        2.0226
         2.33       2.02145
         2.34       2.02032
         2.35       2.01919
         2.36       2.01808
         2.37       2.01698
         2.38       2.01589
         2.39       2.01481
          2.4       2.01375
         2.41       2.01269
         2.42       2.01164
         2.43       2.01061
         2.44       2.00958
         2.45       2.00857
         2.46       2.00756
         2.47       2.00657
         2.48       2.00558
         2.49       2.00461
          2.5       2.00364
         2.51       2.00269
         2.52       2.00174
         2.53        2.0008
         2.54       1.99983
         2.55       1.99892
         2.56       1.99801
         2.57       1.99712
         2.58       1.99622
         2.59       1.99534
          2.6       1.99447
         2.61        1.9936
         2.62       1.99274
         2.63        1.9919
         2.64       1.99105
         2.65       1.99022
         2.66        1.9894
         2.67       1.98858
         2.68       1.98777
         2.69       1.98697
          2.7       1.98617
         2.71       1.98539
         2.72       1.98461
         2.73       1.98384
         2.74       1.98307
         2.75       1.98232
         2.76       1.98157
         2.77       1.98082
         2.78       1.98009
         2.79       1.97936
          2.8       1.97864
         2.81       1.97792
         2.82       1.97721
         2.83       1.97651
         2.84       1.97582
         2.85       1.97513
         2.86       1.97445
         2.87       1.97377
         2.88        1.9731
         2.89       1.97244
          2.9       1.97178
         2.91       1.97113
         2.92       1.97049
         2.93       1.96985
         2.94       1.96922
         2.95       1.96859
         2.96       1.96797
         2.97       1.96735
         2.98       1.96674
         2.99       1.96614
            3       1.96554
         3.01       1.96495
         3.02       1.96436
         3.03       1.96378
         3.04        1.9632
         3.05       1.96263
         3.06       1.96207
         3.07       1.96151
         3.08       1.96095
         3.09        1.9604
          3.1       1.95985
         3.11       1.95931
         3.12       1.95878
         3.13       1.95825
         3.14       1.95772
         3.15        1.9572
         3.16       1.95669
         3.17       1.95617
         3.18       1.95567
         3.19       1.95517
          3.2       1.95467
         3.21       1.95418
         3.22       1.95369
         3.23        1.9532
         3.24       1.95272
         3.25       1.95225
         3.26       1.95178
         3.27       1.95131
         3.28       1.95085
         3.29       1.95039
          3.3       1.94994
         3.31       1.94949
         3.32       1.94904
         3.33        1.9486
         3.34       1.94816
         3.35       1.94773
         3.36        1.9473
         3.37       1.94687
         3.38       1.94645
         3.39       1.94603
          3.4       1.94558
         3.41       1.94517
         3.42       1.94477
         3.43       1.94436
         3.44       1.94397
         3.45       1.94357
         3.46       1.94318
         3.47       1.94279
         3.48       1.94241
         3.49       1.94203
          3.5       1.94165
         3.51       1.94127
         3.52        1.9409
         3.53       1.94053
         3.54       1.94017
         3.55       1.93981
         3.56       1.93945
         3.57       1.93909
         3.58       1.93874
         3.59       1.93839
          3.6       1.93805
         3.61        1.9377
         3.62       1.93736
         3.63       1.93703
         3.64       1.93669
         3.65       1.93636
         3.66       1.93603
         3.67       1.93571
         3.68       1.93539
         3.69       1.93507
          3.7       1.93475
         3.71       1.93444
         3.72       1.93413
         3.73       1.93382
         3.74       1.93351
         3.75       1.93321
         3.76       1.93291
         3.77       1.93261
         3.78       1.93232
         3.79       1.93203
          3.8       1.93174
         3.81       1.93145
         3.82       1.93117
         3.83       1.93088
         3.84        1.9306
         3.85       1.93033
         3.86       1.93005
         3.87       1.92978
         3.88       1.92951
         3.89       1.92924
          3.9       1.92898
         3.91       1.92872
         3.92       1.92846
         3.93        1.9282
         3.94       1.92794
         3.95       1.92769
         3.96       1.92744
         3.97       1.92719
         3.98       1.92694
         3.99        1.9267
            4       1.92646
         4.01       1.92622
         4.02       1.92598
         4.03       1.92574
         4.04       1.92551
         4.05       1.92528
         4.06       1.92505
         4.07       1.92482
         4.08       1.92459
         4.09       1.92437
          4.1       1.92415
         4.11       1.92393
         4.12       1.92371
         4.13       1.92349
         4.14       1.92328
         4.15       1.92307
         4.16       1.92286
         4.17       1.92265
         4.18       1.92244
         4.19       1.92224
          4.2       1.92203
         4.21       1.92183
         4.22       1.92163
         4.23       1.92143
         4.24       1.92124
         4.25       1.92104
         4.26       1.92085
         4.27       1.92066
         4.28       1.92047
         4.29       1.92028
          4.3        1.9201
         4.31       1.91991
         4.32       1.91973
         4.33       1.91955
         4.34       1.91937
         4.35       1.91919
         4.36       1.91902
         4.37        1.9188
         4.38       1.91864
         4.39       1.91847
          4.4        1.9183
         4.41       1.91813
         4.42       1.91796
         4.43        1.9178
         4.44       1.91764
         4.45       1.91747
         4.46       1.91731
         4.47       1.91716
         4.48         1.917
         4.49       1.91684
          4.5       1.91669
         4.51       1.91653
         4.52       1.91638
         4.53       1.91623
         4.54       1.91608
         4.55       1.91593
         4.56       1.91578
         4.57       1.91564
         4.58       1.91549
         4.59       1.91535
          4.6       1.91521
         4.61       1.91507
         4.62       1.91493
         4.63       1.91479
         4.64       1.91465
         4.65       1.91452
         4.66       1.91438
         4.67       1.91425
         4.68       1.91411
         4.69       1.91398
          4.7       1.91385
         4.71       1.91372
         4.72        1.9136
         4.73       1.91347
         4.74       1.91334
         4.75       1.91322
         4.76        1.9131
         4.77       1.91297
         4.78       1.91285
         4.79       1.91273
          4.8       1.91261
         4.81       1.91249
         4.82       1.91238
         4.83       1.91226
         4.84       1.91215
         4.85       1.91203
         4.86       1.91192
         4.87       1.91181
         4.88       1.91169
         4.89       1.91158
          4.9       1.91148
         4.91       1.91137
         4.92       1.91126
         4.93       1.91115
         4.94       1.91105
         4.95       1.91094
         4.96       1.91084
         4.97       1.91074
         4.98       1.91064
         4.99       1.91054
            5       1.91044
         5.01       1.91034
         5.02       1.91024
         5.03       1.91014
         5.04       1.91005
         5.05       1.90995
         5.06       1.90985
         5.07       1.90976
         5.08       1.90967
         5.09       1.90958
          5.1       1.90948
         5.11       1.90939
         5.12        1.9093
         5.13       1.90921
         5.14       1.90913
         5.15       1.90904
         5.16       1.90895
         5.17       1.90887
         5.18       1.90878
         5.19        1.9087
          5.2       1.90861
         5.21       1.90853
         5.22       1.90845
         5.23       1.90837
         5.24       1.90829
         5.25       1.90821
         5.26       1.90813
         5.27       1.90805
         5.28       1.90797
         5.29       1.90789
          5.3       1.90782
         5.31       1.90774
         5.32       1.90767
         5.33       1.90759
         5.34       1.90752
         5.35       1.90744
         5.36       1.90737
         5.37        1.9073
         5.38       1.90723
         5.39       1.90716
          5.4       1.90709
         5.41       1.90702
         5.42       1.90695
         5.43       1.90684
         5.44       1.90678
         5.45       1.90672
         5.46       1.90665
         5.47       1.90659
         5.48       1.90652
         5.49       1.90646
          5.5        1.9064
         5.51       1.90633
         5.52       1.90627
         5.53       1.90621
         5.54       1.90615
         5.55       1.90609
         5.56       1.90603
         5.57       1.90597
         5.58       1.90591
         5.59       1.90585
          5.6       1.90579
         5.61       1.90574
         5.62       1.90568
         5.63       1.90562
         5.64       1.90557
         5.65       1.90551
         5.66       1.90546
         5.67        1.9054
         5.68       1.90535
         5.69       1.90529
          5.7       1.90524
         5.71       1.90519
         5.72       1.90514
         5.73       1.90508
         5.74       1.90503
         5.75       1.90498
         5.76       1.90493
         5.77       1.90488
         5.78       1.90483
         5.79       1.90478
          5.8       1.90474
         5.81       1.90469
         5.82       1.90464
         5.83       1.90459
         5.84       1.90454
         5.85        1.9045
         5.86       1.90445
         5.87       1.90441
         5.88       1.90436
         5.89       1.90432
          5.9       1.90427
         5.91       1.90423
         5.92       1.90418
         5.93       1.90414
         5.94        1.9041
         5.95       1.90406
         5.96       1.90401
         5.97       1.90397
         5.98       1.90393
         5.99       1.90389
            6       1.90385
         6.01       1.90381
         6.02       1.90377
         6.03       1.90373
         6.04       1.90369
         6.05       1.90365
         6.06       1.90361
         6.07       1.90357
         6.08       1.90354
         6.09        1.9035
          6.1       1.90346
         6.11       1.90343
         6.12       1.90339
         6.13       1.90335
         6.14       1.90332
         6.15       1.90328
         6.16       1.90325
         6.17       1.90321
         6.18       1.90318
         6.19       1.90314
          6.2       1.90311
         6.21       1.90308
         6.22       1.90304
         6.23       1.90301
         6.24       1.90298
         6.25       1.90294
         6.26       1.90291
         6.27       1.90288
         6.28       1.90285
         6.29       1.90282
          6.3       1.90279
         6.31       1.90276
         6.32       1.90273
         6.33        1.9027
         6.34       1.90267
         6.35       1.90264
         6.36       1.90261
         6.37       1.90258
         6.38       1.90255
         6.39       1.90252
          6.4       1.90249
         6.41       1.90246
         6.42       1.90244
         6.43       1.90241
         6.44       1.90238
         6.45       1.90235
         6.46       1.90233
         6.47        1.9023
         6.48       1.90227
         6.49       1.90225
          6.5       1.90222
         6.51        1.9022
         6.52       1.90217
         6.53       1.90215
         6.54       1.90212
         6.55        1.9021
         6.56       1.90207
         6.57       1.90201
         6.58       1.90199
         6.59       1.90197
          6.6       1.90195
         6.61       1.90192
         6.62        1.9019
         6.63       1.90188
         6.64       1.90186
         6.65       1.90184
         6.66       1.90182
         6.67       1.90179
         6.68       1.90177
         6.69       1.90175
          6.7       1.90173
         6.71       1.90171
         6.72       1.90169
         6.73       1.90167
         6.74       1.90165
         6.75       1.90163
         6.76       1.90161
         6.77       1.90159
         6.78       1.90157
         6.79       1.90155
          6.8       1.90153
         6.81       1.90151
         6.82        1.9015
         6.83       1.90148
         6.84       1.90146
         6.85       1.90144
         6.86       1.90142
         6.87        1.9014
         6.88       1.90139
         6.89       1.90137
          6.9       1.90135
         6.91       1.90133
         6.92       1.90132
         6.93        1.9013
         6.94       1.90128
         6.95       1.90127
         6.96       1.90125
         6.97       1.90123
         6.98       1.90122
         6.99        1.9012
            7       1.90119
         7.01       1.90117
         7.02       1.90115
         7.03       1.90114
         7.04       1.90112
         7.05       1.90111
         7.06       1.90109
         7.07       1.90108
         7.08       1.90106
         7.09       1.90105
          7.1       1.90103
         7.11       1.90102
         7.12       1.90101
         7.13       1.90099
         7.14       1.90098
         7.15       1.90096
         7.16       1.90095
         7.17       1.90094
         7.18       1.90092
         7.19       1.90091
          7.2        1.9009
         7.21       1.90088
         7.22       1.90087
         7.23       1.90086
         7.24       1.90084
         7.25       1.90083
         7.26       1.90082
         7.27       1.90081
         7.28       1.90079
         7.29       1.90078
          7.3       1.90077
         7.31       1.90076
         7.32       1.90075
         7.33       1.90073
         7.34       1.90072
         7.35       1.90071
         7.36        1.9007
         7.37       1.90069
         7.38       1.90068
         7.39       1.90067
          7.4       1.90066
         7.41       1.90064
         7.42       1.90063
         7.43       1.90062
         7.44       1.90061
         7.45        1.9006
         7.46       1.90059
         7.47       1.90058
         7.48       1.90057
         7.49       1.90056
          7.5       1.90055
         7.51       1.90054
         7.52       1.90053
         7.53       1.90052
         7.54       1.90051
         7.55        1.9005
         7.56       1.90049
         7.57       1.90048
         7.58       1.90047
         7.59       1.90047
          7.6       1.90046
         7.61       1.90045
         7.62       1.90044
         7.63       1.90043
         7.64       1.90042
         7.65       1.90041
         7.66        1.9004
         7.67        1.9004
         7.68       1.90039
         7.69       1.90038
          7.7       1.90037
         7.71       1.90036
         7.72       1.90035
         7.73       1.90035
         7.74       1.90034
         7.75       1.90033
         7.76       1.90032
         7.77       1.90031
         7.78       1.90031
         7.79        1.9003
          7.8       1.90029
         7.81       1.90028
         7.82       1.90028
         7.83       1.90027
         7.84       1.90026
         7.85       1.90022
         7.86       1.90025
         7.87       1.90021
         7.88        1.9002
         7.89        1.9002
          7.9       1.90019
         7.91       1.90019
         7.92       1.90018
         7.93       1.90017
         7.94       1.90017
         7.95       1.90016
         7.96       1.90016
         7.97       1.90015
         7.98       1.90015
         7.99       1.90014
            8       1.90013
         8.01       1.90013
         8.02       1.90012
         8.03       1.90012
         8.04       1.90011
         8.05       1.90011
         8.06        1.9001
         8.07        1.9001
         8.08       1.90009
         8.09       1.90009
          8.1       1.90008
         8.11       1.90008
         8.12       1.90007
         8.13       1.90007
         8.14       1.90006
         8.15       1.90006
         8.16       1.90005
         8.17       1.90005
         8.18       1.90004
         8.19       1.90004
          8.2       1.90003
         8.21       1.90003
         8.22       1.90002
         8.23       1.90002
         8.24       1.90001
         8.25       1.90001
         8.26           1.9
         8.27           1.9
         8.28       1.89999
         8.29       1.89999
          8.3       1.89999
         8.31       1.89998
         8.32       1.89998
         8.33       1.89997
         8.34       1.89997
         8.35       1.89997
         8.36       1.89996
         8.37       1.89996
         8.38       1.89995
         8.39       1.89995
          8.4       1.89995
         8.41       1.89994
         8.42       1.89994
         8.43       1.89993
         8.44       1.89993
         8.45       1.89993
         8.46       1.89992
         8.47       1.89992
         8.48       1.89992
         8.49       1.89991
          8.5       1.89991
         8.51        1.8999
         8.52        1.8999
         8.53        1.8999
         8.54       1.89989
         8.55       1.89989
         8.56       1.89989
         8.57       1.89988
         8.58       1.89988
         8.59       1.89988
          8.6       1.89987
         8.61       1.89987
         8.62       1.89987
         8.63       1.89987
         8.64       1.89986
         8.65       1.89986
         8.66       1.89986
         8.67       1.89985
         8.68       1.89985
         8.69       1.89985
          8.7       1.89984
         8.71       1.89984
         8.72       1.89984
         8.73       1.89984
         8.74       1.89983
         8.75       1.89983
         8.76       1.89983
         8.77       1.89982
         8.78       1.89982
         8.79       1.89982
          8.8       1.89982
         8.81       1.89981
         8.82       1.89981
         8.83       1.89981
         8.84       1.89981
         8.85        1.8998
         8.86        1.8998
         8.87        1.8998
         8.88        1.8998
         8.89       1.89979
          8.9       1.89979
         8.91       1.89979
         8.92       1.89979
         8.93       1.89979
         8.94       1.89978
         8.95       1.89978
         8.96       1.89978
         8.97       1.89978
         8.98       1.89977
         8.99       1.89977
            9       1.89977
         9.01       1.89977
         9.02       1.89977
         9.03       1.89976
         9.04       1.89976
         9.05       1.89976
         9.06       1.89976
         9.07       1.89976
         9.08       1.89975
         9.09       1.89975
          9.1       1.89975
         9.11       1.89975
         9.12       1.89975
         9.13       1.89974
         9.14       1.89974
         9.15       1.89974
         9.16       1.89974
         9.17       1.89974
         9.18       1.89974
         9.19       1.89973
          9.2       1.89973
         9.21       1.89973
         9.22       1.89973
         9.23       1.89973
         9.24       1.89973
         9.25       1.89972
         9.26       1.89972
         9.27       1.89972
         9.28       1.89972
         9.29       1.89972
          9.3       1.89972
         9.31       1.89971
         9.32       1.89971
         9.33       1.89971
         9.34       1.89971
         9.35       1.89971
         9.36       1.89971
         9.37       1.89971
         9.38        1.8997
         9.39       1.89967
          9.4        1.8997
         9.41       1.89967
         9.42       1.89967
         9.43       1.89967
         9.44       1.89967
         9.45       1.89967
         9.46       1.89967
         9.47       1.89967
         9.48       1.89967
         9.49       1.89967
          9.5       1.89966
         9.51       1.89966
         9.52       1.89966
         9.53       1.89966
         9.54       1.89966
         9.55       1.89966
         9.56       1.89966
         9.57       1.89966
         9.58       1.89966
         9.59       1.89966
          9.6       1.89966
         9.61       1.89966
         9.62       1.89966
         9.63       1.89965
         9.64       1.89965
         9.65       1.89965
         9.66       1.89965
         9.67       1.89965
         9.68       1.89965
         9.69       1.89965
          9.7       1.89965
         9.71       1.89965
         9.72       1.89965
         9.73       1.89965
         9.74       1.89965
         9.75       1.89965
         9.76       1.89965
         9.77       1.89965
         9.78       1.89964
         9.79       1.89964
          9.8       1.89964
         9.81       1.89964
         9.82       1.89964
         9.83       1.89964
         9.84       1.89964
         9.85       1.89964
         9.86       1.89964
         9.87       1.89964
         9.88       1.89964
         9.89       1.89964
          9.9       1.89964
         9.91       1.89964
         9.92       1.89964
         9.93       1.89964
         9.94       1.89964
         9.95       1.89963
         9.96       1.89963
         9.97       1.89963
         9.98       1.89963
         9.99       1.89963
           10       1.89963
