/*--------------------------------*- C++ -*----------------------------------*\
  =========                 |
  \\      /  F ield         | OpenFOAM: The Open Source CFD Toolbox
   \\    /   O peration     | Website:  https://openfoam.org
    \\  /    A nd           | Version:  7
     \\/     M anipulation  |
\*---------------------------------------------------------------------------*/
FoamFile
{
    version     2.0;
    format      ascii;
    class       volScalarField;
    location    "2.5";
    object      p;
}
// * * * * * * * * * * * * * * * * * * * * * * * * * * * * * * * * * * * * * //

dimensions      [0 2 -2 0 0 0 0];

internalField   nonuniform List<scalar> 
500
(
3.76429
3.76429
3.76429
3.76429
3.82089
3.82089
3.82089
3.82089
3.83805
3.83787
3.83787
3.83805
3.87924
3.87791
3.87791
3.87924
3.95696
3.95543
3.95543
3.95696
3.3607
3.36069
3.36069
3.3607
3.41415
3.41409
3.41409
3.41415
3.40558
3.40553
3.40553
3.40558
3.41965
3.4196
3.4196
3.41965
3.4163
3.4161
3.4161
3.4163
3.25529
3.25531
3.25531
3.25529
3.29516
3.29529
3.29529
3.29516
3.28652
3.28678
3.28678
3.28652
3.29582
3.29607
3.29607
3.29582
3.29077
3.29086
3.29086
3.29077
2.9223
2.92229
2.92229
2.9223
2.96242
2.9624
2.9624
2.96242
2.95322
2.95318
2.95318
2.95322
2.96325
2.96322
2.96322
2.96325
2.95774
2.95769
2.95769
2.95774
2.77036
2.77037
2.77037
2.77036
2.79902
2.79909
2.79909
2.79902
2.79084
2.791
2.791
2.79084
2.79793
2.7981
2.7981
2.79793
2.79271
2.79286
2.79286
2.79271
2.54261
2.54261
2.54261
2.54261
2.57086
2.57087
2.57087
2.57086
2.56421
2.56419
2.56419
2.56421
2.57244
2.57239
2.57239
2.57244
2.56774
2.56772
2.56772
2.56774
2.37852
2.37853
2.37853
2.37852
2.40131
2.40134
2.40134
2.40131
2.39528
2.39533
2.39533
2.39528
2.40204
2.4021
2.4021
2.40204
2.3978
2.39795
2.39795
2.3978
2.20373
2.20373
2.20373
2.20373
2.22508
2.22509
2.22509
2.22508
2.22004
2.22004
2.22004
2.22004
2.22688
2.22685
2.22685
2.22688
2.22306
2.22308
2.22308
2.22306
2.04726
2.04727
2.04727
2.04726
2.06602
2.06603
2.06603
2.06602
2.06142
2.06144
2.06144
2.06142
2.06747
2.06748
2.06748
2.06747
2.06399
2.06406
2.06406
2.06399
1.89539
1.89539
1.89539
1.89539
1.91261
1.91262
1.91262
1.91261
1.90856
1.90856
1.90856
1.90856
1.91425
1.91424
1.91424
1.91425
1.91107
1.91112
1.91112
1.91107
1.75062
1.75062
1.75062
1.75062
1.76632
1.76632
1.76632
1.76632
1.76263
1.76264
1.76264
1.76263
1.76785
1.76785
1.76785
1.76785
1.76494
1.76499
1.76499
1.76494
1.6108
1.6108
1.6108
1.6108
1.62529
1.62529
1.62529
1.62529
1.62194
1.62194
1.62194
1.62194
1.62677
1.62676
1.62676
1.62677
1.6241
1.62414
1.62414
1.6241
1.47538
1.47538
1.47538
1.47538
1.48881
1.48881
1.48881
1.48881
1.48573
1.48573
1.48573
1.48573
1.49021
1.4902
1.4902
1.49021
1.48774
1.48778
1.48778
1.48774
1.34368
1.34368
1.34368
1.34368
1.3562
1.3562
1.3562
1.3562
1.35334
1.35334
1.35334
1.35334
1.35752
1.35751
1.35751
1.35752
1.35522
1.35526
1.35526
1.35522
1.21525
1.21526
1.21526
1.21525
1.22696
1.22696
1.22696
1.22696
1.22431
1.2243
1.2243
1.22431
1.2282
1.22819
1.22819
1.2282
1.22606
1.22609
1.22609
1.22606
1.08972
1.08972
1.08972
1.08972
1.10069
1.10069
1.10069
1.10069
1.09821
1.09821
1.09821
1.09821
1.10185
1.10184
1.10184
1.10185
1.09985
1.09988
1.09988
1.09985
0.966848
0.966848
0.966848
0.966848
0.977072
0.977075
0.977075
0.977072
0.97477
0.974768
0.974768
0.97477
0.978155
0.978144
0.978144
0.978155
0.976287
0.976317
0.976317
0.976287
0.846294
0.846295
0.846295
0.846294
0.855817
0.85582
0.85582
0.855817
0.853676
0.853673
0.853673
0.853676
0.856818
0.856808
0.856808
0.856818
0.855086
0.855114
0.855114
0.855086
0.728033
0.728033
0.728033
0.728033
0.73673
0.736732
0.736732
0.73673
0.734774
0.734771
0.734771
0.734774
0.737632
0.737622
0.737622
0.737632
0.736052
0.736078
0.736078
0.736052
0.611569
0.611569
0.611569
0.611569
0.619524
0.619526
0.619526
0.619524
0.617729
0.617726
0.617726
0.617729
0.620332
0.620322
0.620322
0.620332
0.618904
0.618927
0.618927
0.618904
0.497182
0.497182
0.497182
0.497182
0.5041
0.504101
0.504101
0.5041
0.50252
0.502516
0.502516
0.50252
0.504777
0.504768
0.504768
0.504777
0.503532
0.503554
0.503554
0.503532
0.383916
0.383916
0.383916
0.383916
0.3901
0.390101
0.390101
0.3901
0.388681
0.388678
0.388678
0.388681
0.390681
0.390673
0.390673
0.390681
0.389597
0.389615
0.389615
0.389597
0.272588
0.272588
0.272588
0.272588
0.277482
0.277483
0.277483
0.277482
0.276311
0.276308
0.276308
0.276311
0.277906
0.277899
0.277899
0.277906
0.277035
0.27705
0.27705
0.277035
0.161571
0.161571
0.161571
0.161571
0.165857
0.165858
0.165858
0.165857
0.164894
0.164892
0.164892
0.164894
0.166199
0.166194
0.166194
0.166199
0.165509
0.165523
0.165523
0.165509
0.0524742
0.0524742
0.0524742
0.0524742
0.0549735
0.0549737
0.0549737
0.0549735
0.0543886
0.0543871
0.0543871
0.0543886
0.05509
0.0550862
0.0550862
0.05509
0.0547278
0.0547325
0.0547325
0.0547278
)
;

boundaryField
{
    inlet
    {
        type            zeroGradient;
    }
    outlet
    {
        type            fixedValue;
        value           uniform 0;
    }
    wall
    {
        type            zeroGradient;
    }
    back
    {
        type            wedge;
    }
    front
    {
        type            wedge;
    }
    axis
    {
        type            empty;
    }
}


// ************************************************************************* //
