/*--------------------------------*- C++ -*----------------------------------*\
  =========                 |
  \\      /  F ield         | OpenFOAM: The Open Source CFD Toolbox
   \\    /   O peration     | Website:  https://openfoam.org
    \\  /    A nd           | Version:  7
     \\/     M anipulation  |
\*---------------------------------------------------------------------------*/
FoamFile
{
    version     2.0;
    format      ascii;
    class       surfaceScalarField;
    location    "2.5";
    object      phi;
}
// * * * * * * * * * * * * * * * * * * * * * * * * * * * * * * * * * * * * * //

dimensions      [0 3 -1 0 0 0 0];

internalField   nonuniform List<scalar> 
1255
(
2.74553e-05
-1.75524e-05
0.000290682
2.02386e-14
-1.77973e-05
0.000290591
-2.74553e-05
-1.77973e-05
0.000290591
-1.75524e-05
0.000290682
8.16095e-05
-7.3721e-05
0.000876538
-7.13957e-14
-7.53999e-05
0.000875227
-8.16095e-05
-7.53999e-05
0.000875227
-7.3721e-05
0.000876538
0.000122544
-0.000194803
0.00147455
2.02836e-12
-0.000198366
0.0014722
-0.000122544
-0.000198366
0.0014722
-0.000194803
0.00147455
0.000223984
-0.000281774
0.00203145
2.03237e-12
-0.000285995
0.00202898
-0.000223984
-0.000285995
0.00202898
-0.000281774
0.00203145
0.000128765
0.00205274
-1.12779e-11
0.00205082
-0.000128765
0.00205082
0.00205274
3.02434e-05
-1.86482e-05
0.00033968
2.68291e-15
-1.89146e-05
0.000339749
-3.02434e-05
-1.89146e-05
0.000339749
-1.86482e-05
0.00033968
9.19679e-05
-7.38052e-05
0.00102291
1.90215e-13
-7.57009e-05
0.00102398
-9.19679e-05
-7.57009e-05
0.00102398
-7.38052e-05
0.00102291
0.000136478
-0.000172715
0.00170687
-4.51208e-12
-0.000176167
0.00170915
-0.000136478
-0.000176167
0.00170915
-0.000172715
0.00170687
0.000212641
-0.000202346
0.00227012
-8.54206e-12
-0.000206936
0.00227239
-0.000212641
-0.000206936
0.00227239
-0.000202346
0.00227012
9.76943e-05
0.0019403
5.26981e-11
0.00194157
-9.76942e-05
0.00194157
0.0019403
2.30057e-05
-1.45082e-05
0.000377526
-3.73923e-14
-1.47175e-05
0.000377472
-2.30057e-05
-1.47175e-05
0.000377472
-1.45082e-05
0.000377526
6.97198e-05
-5.84129e-05
0.00113977
4.47888e-13
-5.99141e-05
0.0011389
-6.97198e-05
-5.99141e-05
0.0011389
-5.84129e-05
0.00113977
0.00010327
-0.00013184
0.00188907
5.4092e-12
-0.000134486
0.00188699
-0.000103269
-0.000134486
0.00188699
-0.00013184
0.00188907
0.000153062
-0.000138829
0.00243535
1.05879e-11
-0.000142034
0.002433
-0.000153062
-0.000142034
0.002433
-0.000138829
0.00243535
5.31138e-05
0.00185412
-1.04968e-10
0.00185265
-5.3114e-05
0.00185265
0.00185412
2.29247e-05
-1.38917e-05
0.000414451
-1.21655e-14
-1.40882e-05
0.000414485
-2.29247e-05
-1.40882e-05
0.000414485
-1.38917e-05
0.000414451
6.77931e-05
-5.26063e-05
0.001246
2.52172e-13
-5.39705e-05
0.00124657
-6.77931e-05
-5.39705e-05
0.00124657
-5.26063e-05
0.001246
9.61718e-05
-0.000109147
0.00203893
8.55025e-13
-0.00011137
0.00204056
-9.61718e-05
-0.00011137
0.00204056
-0.000109147
0.00203893
0.000127874
-0.000100807
0.0025508
-2.11792e-11
-0.000103251
0.00255276
-0.000127874
-0.000103251
0.00255276
-0.000100807
0.0025508
3.36405e-05
0.00178193
4.31145e-11
0.00178304
-3.36404e-05
0.00178304
0.00178193
1.66958e-05
-1.0236e-05
0.000441581
5.55871e-14
-1.03819e-05
0.000441563
-1.66958e-05
-1.03819e-05
0.000441563
-1.0236e-05
0.000441581
4.89373e-05
-3.94666e-05
0.00132594
-3.21757e-12
-4.049e-05
0.00132562
-4.89373e-05
-4.049e-05
0.00132562
-3.94666e-05
0.00132594
6.88916e-05
-8.12215e-05
0.00215288
5.51714e-12
-8.28534e-05
0.00215181
-6.88916e-05
-8.28534e-05
0.00215181
-8.12215e-05
0.00215288
8.79893e-05
-6.8909e-05
0.00263004
7.97372e-11
-7.05574e-05
0.00262845
-8.79892e-05
-7.05574e-05
0.00262845
-6.8909e-05
0.00263004
1.2598e-05
0.00172618
-2.27674e-11
0.00172508
-1.25981e-05
0.00172508
0.00172618
1.60119e-05
-9.55843e-06
0.000467257
3.22366e-14
-9.69177e-06
0.000467266
-1.60119e-05
-9.69177e-06
0.000467266
-9.55843e-06
0.000467257
4.57125e-05
-3.53761e-05
0.00139775
8.41233e-12
-3.62868e-05
0.00139793
-4.57125e-05
-3.62868e-05
0.00139793
-3.53761e-05
0.00139775
6.3021e-05
-6.78885e-05
0.00224716
-6.64513e-11
-6.92432e-05
0.00224779
-6.30211e-05
-6.92432e-05
0.00224779
-6.78885e-05
0.00224716
7.41226e-05
-5.12557e-05
0.00268482
-3.10984e-10
-5.25257e-05
0.00268585
-7.41232e-05
-5.25257e-05
0.00268585
-5.12557e-05
0.00268482
8.85852e-06
0.00168065
-8.0464e-10
0.00168142
-8.86007e-06
0.00168142
0.00168064
1.30559e-05
-7.80285e-06
0.000488238
-1.42059e-12
-7.912e-06
0.000488234
-1.30559e-05
-7.912e-06
0.000488234
-7.80285e-06
0.000488238
3.69129e-05
-2.88657e-05
0.0014566
-1.23896e-11
-2.96102e-05
0.00145654
-3.69129e-05
-2.96102e-05
0.00145654
-2.88657e-05
0.0014566
4.98697e-05
-5.39003e-05
0.00232329
2.33112e-10
-5.49765e-05
0.00232303
-4.98692e-05
-5.49765e-05
0.00232303
-5.39004e-05
0.00232329
5.42745e-05
-3.74569e-05
0.00272409
7.76633e-10
-3.84007e-05
0.00272355
-5.42729e-05
-3.84007e-05
0.00272355
-3.7457e-05
0.00272409
-2.81265e-07
0.0016433
-3.62162e-10
0.00164274
2.80493e-07
0.00164274
0.0016433
1.20384e-05
-7.10193e-06
0.000507471
-2.84548e-12
-7.20011e-06
0.000507473
-1.20384e-05
-7.20011e-06
0.000507473
-7.10193e-06
0.000507471
3.3443e-05
-2.56967e-05
0.00150911
-9.55214e-11
-2.63554e-05
0.00150914
-3.34432e-05
-2.63554e-05
0.00150914
-2.56967e-05
0.00150911
4.43419e-05
-4.56942e-05
0.00238749
-1.5015e-09
-4.65916e-05
0.00238761
-4.43448e-05
-4.65917e-05
0.00238761
-4.56945e-05
0.00238749
4.53923e-05
-2.88453e-05
0.0027517
-5.22831e-09
-2.95691e-05
0.00275193
-4.54027e-05
-2.95692e-05
0.00275193
-2.88461e-05
0.0027517
2.02567e-08
0.00161293
-3.52451e-08
0.00161322
-9.09089e-08
0.00161322
0.00161293
1.05993e-05
-6.22732e-06
0.000524386
9.96902e-13
-6.31327e-06
0.000524385
-1.05993e-05
-6.31327e-06
0.000524385
-6.22732e-06
0.000524386
2.91639e-05
-2.22659e-05
0.00155483
2.25198e-12
-2.2837e-05
0.00155482
-2.91639e-05
-2.2837e-05
0.00155482
-2.22659e-05
0.00155483
3.77751e-05
-3.82066e-05
0.00244152
-5.42825e-10
-3.89578e-05
0.0024415
-3.77761e-05
-3.89578e-05
0.0024415
-3.82066e-05
0.00244152
3.59667e-05
-2.21694e-05
0.00277173
-1.86843e-09
-2.27405e-05
0.00277168
-3.59705e-05
-2.27405e-05
0.00277168
-2.21693e-05
0.00277173
-2.84701e-06
0.0015877
-6.1196e-09
0.00158764
2.83473e-06
0.00158764
0.0015877
9.66511e-06
-5.63851e-06
0.000539766
2.52287e-13
-5.71588e-06
0.000539766
-9.66511e-06
-5.71588e-06
0.000539766
-5.63851e-06
0.000539766
2.62774e-05
-1.98277e-05
0.00159572
1.52037e-11
-2.03351e-05
0.00159572
-2.62774e-05
-2.03351e-05
0.00159572
-1.98277e-05
0.00159572
3.32746e-05
-3.27871e-05
0.00248785
-1.31367e-10
-3.34265e-05
0.00248787
-3.32748e-05
-3.34265e-05
0.00248787
-3.27871e-05
0.00248785
2.99485e-05
-1.75016e-05
0.00278614
-5.5154e-10
-1.79544e-05
0.00278616
-2.99496e-05
-1.79544e-05
0.00278616
-1.75015e-05
0.00278614
-3.15146e-06
0.00156649
-9.19252e-10
0.00156654
3.1497e-06
0.00156654
0.00156649
8.80093e-06
-5.10934e-06
0.000553746
-5.6767e-14
-5.17922e-06
0.000553747
-8.80093e-06
-5.17922e-06
0.000553747
-5.10934e-06
0.000553746
2.37157e-05
-1.77049e-05
0.00163241
7.90941e-12
-1.81577e-05
0.00163241
-2.37157e-05
-1.81577e-05
0.00163241
-1.77049e-05
0.00163241
2.9331e-05
-2.83534e-05
0.00252794
-2.3076e-11
-2.8905e-05
0.00252795
-2.9331e-05
-2.8905e-05
0.00252795
-2.83534e-05
0.00252794
2.50515e-05
-1.4001e-05
0.00279667
-1.71945e-10
-1.43701e-05
0.00279667
-2.50518e-05
-1.43701e-05
0.00279667
-1.4001e-05
0.00279667
-3.7799e-06
0.00154836
-2.1858e-10
0.00154839
3.77948e-06
0.00154839
0.00154836
8.09904e-06
-4.67951e-06
0.000566589
-1.30652e-14
-4.74329e-06
0.000566589
-8.09904e-06
-4.74329e-06
0.000566589
-4.67951e-06
0.000566589
2.164e-05
-1.59776e-05
0.0016657
2.97254e-12
-1.63859e-05
0.0016657
-2.164e-05
-1.63859e-05
0.0016657
-1.59776e-05
0.0016657
2.61456e-05
-2.48509e-05
0.00256304
1.92323e-12
-2.53326e-05
0.00256304
-2.61456e-05
-2.53326e-05
0.00256304
-2.48509e-05
0.00256304
2.13656e-05
-1.13964e-05
0.00280441
-5.51402e-11
-1.17012e-05
0.00280441
-2.13657e-05
-1.17012e-05
0.00280441
-1.13964e-05
0.00280441
-4.01232e-06
0.00153266
-6.30289e-11
0.00153267
4.0122e-06
0.00153267
0.00153266
7.49546e-06
-4.31369e-06
0.000578457
1.06084e-13
-4.37233e-06
0.000578457
-7.49546e-06
-4.37233e-06
0.000578457
-4.31369e-06
0.000578457
1.98867e-05
-1.45275e-05
0.00169611
9.13232e-13
-1.48985e-05
0.00169611
-1.98867e-05
-1.48985e-05
0.00169611
-1.45275e-05
0.00169611
2.34898e-05
-2.20051e-05
0.00259406
5.65194e-12
-2.24307e-05
0.00259406
-2.34897e-05
-2.24307e-05
0.00259406
-2.20051e-05
0.00259406
1.84598e-05
-9.39957e-06
0.00281009
-1.87034e-11
-9.65507e-06
0.00281009
-1.84599e-05
-9.65507e-06
0.00281009
-9.39957e-06
0.00281009
-4.13346e-06
0.00151887
-2.50659e-11
0.00151888
4.13341e-06
0.00151888
0.00151887
6.97659e-06
-4.00092e-06
0.000589488
1.49473e-13
-4.05518e-06
0.000589488
-6.97659e-06
-4.05518e-06
0.000589488
-4.00092e-06
0.000589488
1.83944e-05
-1.32997e-05
0.00172409
1.67498e-13
-1.36392e-05
0.00172409
-1.83944e-05
-1.36392e-05
0.00172409
-1.32997e-05
0.00172409
2.12579e-05
-1.96459e-05
0.00262171
4.98756e-12
-2.0025e-05
0.00262171
-2.12579e-05
-2.0025e-05
0.00262171
-1.96459e-05
0.00262171
1.61001e-05
-7.81996e-06
0.00281421
-6.43097e-12
-8.03625e-06
0.0028142
-1.61001e-05
-8.03625e-06
0.0028142
-7.81996e-06
0.00281421
-4.16268e-06
0.00150668
-1.34122e-11
0.00150669
4.16265e-06
0.00150669
0.00150668
6.51308e-06
-3.72374e-06
0.000599776
1.64057e-13
-3.77413e-06
0.000599776
-6.51308e-06
-3.77413e-06
0.000599776
-3.72374e-06
0.000599776
1.70798e-05
-1.2227e-05
0.00174993
-5.70517e-14
-1.25391e-05
0.00174993
-1.70798e-05
-1.25391e-05
0.00174993
-1.2227e-05
0.00174993
1.93251e-05
-1.76182e-05
0.00264645
3.82999e-12
-1.79575e-05
0.00264645
-1.93251e-05
-1.79575e-05
0.00264645
-1.76182e-05
0.00264645
1.40972e-05
-6.52615e-06
0.00281706
-1.91294e-12
-6.71023e-06
0.00281705
-1.40973e-05
-6.71023e-06
0.00281705
-6.52615e-06
0.00281706
-4.11501e-06
0.00149585
-8.2628e-12
0.00149586
4.11499e-06
0.00149586
0.00149585
6.09413e-06
-3.47352e-06
0.00060939
5.26689e-14
-3.52043e-06
0.00060939
-6.09413e-06
-3.52043e-06
0.00060939
-3.47352e-06
0.00060939
1.58951e-05
-1.12644e-05
0.00177386
-1.03376e-13
-1.15517e-05
0.00177386
-1.58951e-05
-1.15517e-05
0.00177386
-1.12644e-05
0.00177386
1.76006e-05
-1.58215e-05
0.00266862
2.82193e-12
-1.61256e-05
0.00266862
-1.76006e-05
-1.61256e-05
0.00266862
-1.58215e-05
0.00266862
1.23431e-05
-5.448e-06
0.00281888
-2.53661e-13
-5.60504e-06
0.00281887
-1.23431e-05
-5.60504e-06
0.00281887
-5.448e-06
0.00281888
-3.98446e-06
0.00148626
-5.26167e-12
0.00148627
3.98445e-06
0.00148627
0.00148626
5.67759e-06
-3.2273e-06
0.000618339
-4.05033e-14
-3.27082e-06
0.000618339
-5.67759e-06
-3.27082e-06
0.000618339
-3.2273e-06
0.000618339
1.47377e-05
-1.03367e-05
0.00179593
-2.16008e-13
-1.06004e-05
0.00179593
-1.47377e-05
-1.06004e-05
0.00179593
-1.03367e-05
0.00179593
1.5958e-05
-1.41396e-05
0.00268839
1.95923e-12
-1.4411e-05
0.00268839
-1.5958e-05
-1.4411e-05
0.00268839
-1.41396e-05
0.00268839
1.07352e-05
-4.52317e-06
0.00281986
2.33219e-13
-4.65679e-06
0.00281986
-1.07352e-05
-4.65679e-06
0.00281986
-4.52317e-06
0.00281986
-3.77663e-06
0.00147783
-3.24331e-12
0.00147784
3.77662e-06
0.00147784
0.00147783
5.28223e-06
-2.9915e-06
0.000626653
-3.30699e-13
-3.03174e-06
0.000626653
-5.28224e-06
-3.03174e-06
0.000626653
-2.9915e-06
0.000626653
1.36239e-05
-9.44113e-06
0.0018162
-3.63581e-13
-9.68187e-06
0.0018162
-1.36239e-05
-9.68187e-06
0.0018162
-9.44113e-06
0.0018162
1.43744e-05
-1.25565e-05
0.00270588
1.32988e-12
-1.27969e-05
0.00270588
-1.43743e-05
-1.27969e-05
0.00270588
-1.25565e-05
0.00270588
9.27236e-06
-3.74295e-06
0.00282019
3.15053e-13
-3.85631e-06
0.00282019
-9.27236e-06
-3.85631e-06
0.00282019
-3.74295e-06
0.00282019
-3.48459e-06
0.00147049
-2.01e-12
0.0014705
3.48459e-06
0.0014705
0.00147049
4.82066e-06
-2.72084e-06
0.000634231
-6.16657e-13
-2.75737e-06
0.000634231
-4.82066e-06
-2.75737e-06
0.000634231
-2.72084e-06
0.000634231
1.23595e-05
-8.46107e-06
0.00183448
-4.9379e-13
-8.67678e-06
0.00183448
-1.23595e-05
-8.67678e-06
0.00183448
-8.46107e-06
0.00183448
1.26918e-05
-1.09393e-05
0.00272105
7.87409e-13
-1.11485e-05
0.00272104
-1.26918e-05
-1.11485e-05
0.00272104
-1.09393e-05
0.00272105
7.84934e-06
-3.03793e-06
0.00282002
1.9781e-13
-3.13265e-06
0.00282002
-7.84934e-06
-3.13265e-06
0.00282002
-3.03793e-06
0.00282002
-3.14391e-06
0.00146421
-1.1373e-12
0.00146422
3.1439e-06
0.00146422
0.00146421
4.40309e-06
-2.47057e-06
0.000641137
-1.10794e-12
-2.50362e-06
0.000641137
-4.4031e-06
-2.50362e-06
0.000641137
-2.47057e-06
0.000641137
1.11752e-05
-7.52671e-06
0.00185087
-7.39834e-13
-7.71857e-06
0.00185087
-1.11752e-05
-7.71857e-06
0.00185087
-7.52671e-06
0.00185087
1.10746e-05
-9.42899e-06
0.00273401
3.35988e-13
-9.60876e-06
0.00273401
-1.10746e-05
-9.60876e-06
0.00273401
-9.42899e-06
0.00273401
6.58735e-06
-2.45858e-06
0.00281953
5.84858e-14
-2.53723e-06
0.00281954
-6.58735e-06
-2.53723e-06
0.00281954
-2.45858e-06
0.00281953
-2.74634e-06
0.00145892
-5.10604e-13
0.00145894
2.74634e-06
0.00145894
0.00145892
3.82453e-06
-2.13279e-06
0.000647123
-1.34076e-12
-2.16123e-06
0.000647123
-3.82453e-06
-2.16123e-06
0.000647123
-2.13279e-06
0.000647123
9.60297e-06
-6.38182e-06
0.00186486
-7.81052e-13
-6.54453e-06
0.00186486
-9.60297e-06
-6.54453e-06
0.00186486
-6.38182e-06
0.00186486
9.22612e-06
-7.77595e-06
0.00274462
2.03336e-13
-7.92397e-06
0.00274462
-9.22612e-06
-7.92397e-06
0.00274462
-7.77595e-06
0.00274462
5.28708e-06
-1.88238e-06
0.00281885
2.11141e-13
-1.94499e-06
0.00281884
-5.28708e-06
-1.94499e-06
0.00281884
-1.88238e-06
0.00281885
-2.354e-06
0.00145463
-3.44219e-13
0.00145464
2.354e-06
0.00145464
0.00145463
3.41196e-06
-1.88733e-06
0.000652447
-1.774e-12
-1.91237e-06
0.000652447
-3.41197e-06
-1.91237e-06
0.000652447
-1.88733e-06
0.000652447
8.44776e-06
-5.49282e-06
0.00187702
-1.08509e-12
-5.63285e-06
0.00187702
-8.44776e-06
-5.63285e-06
0.00187702
-5.49282e-06
0.00187702
7.72817e-06
-6.44886e-06
0.00275328
-2.32852e-13
-6.57113e-06
0.00275328
-7.72817e-06
-6.57113e-06
0.00275328
-6.44886e-06
0.00275328
4.27885e-06
-1.47815e-06
0.00281808
-1.80002e-14
-1.52849e-06
0.00281808
-4.27885e-06
-1.52849e-06
0.00281808
-1.47815e-06
0.00281808
-1.94485e-06
0.00145115
-8.36033e-14
0.00145116
1.94485e-06
0.00145116
0.00145115
2.69557e-06
-1.46925e-06
0.000656632
-1.66403e-12
-1.48857e-06
0.000656632
-2.69557e-06
-1.48857e-06
0.000656632
-1.46925e-06
0.000656632
6.50425e-06
-4.18026e-06
0.00188633
-9.60034e-13
-4.28691e-06
0.00188633
-6.50425e-06
-4.28691e-06
0.00188633
-4.18026e-06
0.00188633
5.78629e-06
-4.80699e-06
0.00275968
-3.26888e-13
-4.89795e-06
0.00275968
-5.78629e-06
-4.89795e-06
0.00275968
-4.80699e-06
0.00275968
3.13517e-06
-9.9872e-07
0.00281734
-8.92358e-14
-1.03496e-06
0.00281735
-3.13517e-06
-1.03496e-06
0.00281735
-9.9872e-07
0.00281734
-1.55055e-06
0.00144857
2.6902e-14
0.00144858
1.55055e-06
0.00144858
0.00144857
2.38967e-06
-1.30563e-06
0.000660344
-2.29031e-12
-1.32294e-06
0.000660344
-2.38968e-06
-1.32294e-06
0.000660344
-1.30563e-06
0.000660344
5.79146e-06
-3.6284e-06
0.00189452
-1.19132e-12
-3.72089e-06
0.00189452
-5.79146e-06
-3.72089e-06
0.00189452
-3.6284e-06
0.00189452
4.83641e-06
-3.97978e-06
0.00276486
-4.82615e-13
-4.05506e-06
0.00276485
-4.83641e-06
-4.05506e-06
0.00276485
-3.97978e-06
0.00276486
2.51197e-06
-8.49724e-07
0.0028167
-5.45719e-14
-8.79807e-07
0.00281669
-2.51197e-06
-8.79807e-07
0.00281669
-8.49724e-07
0.0028167
-1.2435e-06
0.00144648
1.42038e-13
0.00144645
1.2435e-06
0.00144645
0.00144648
1.41906e-06
-7.8224e-07
-1.85694e-12
-7.92789e-07
-1.41906e-06
-7.92789e-07
-7.8224e-07
3.50547e-06
-2.13184e-06
-1.10931e-12
-2.18621e-06
-3.50547e-06
-2.18621e-06
-2.13184e-06
2.75437e-06
-2.24246e-06
-3.95957e-13
-2.28492e-06
-2.75437e-06
-2.28492e-06
-2.24246e-06
1.43712e-06
-5.19015e-07
5.62817e-14
-5.36083e-07
-1.43712e-06
-5.36083e-07
-5.19015e-07
-6.02689e-07
7.81688e-14
6.02689e-07
)
;

boundaryField
{
    inlet
    {
        type            calculated;
        value           nonuniform List<scalar> 
20
(
-0.000245338
-0.000736015
-0.00122669
-0.00171737
-0.00220805
-0.000245338
-0.000736015
-0.00122669
-0.00171737
-0.00220805
-0.000245338
-0.000736015
-0.00122669
-0.00171737
-0.00220805
-0.000245338
-0.000736015
-0.00122669
-0.00171737
-0.00220805
)
;
    }
    outlet
    {
        type            calculated;
        value           nonuniform List<scalar> 
20
(
0.000662556
0.00189941
0.0027677
0.00281638
0.00144531
0.000662556
0.00189941
0.0027677
0.00281638
0.00144532
0.000662556
0.00189941
0.0027677
0.00281638
0.00144532
0.000662556
0.00189941
0.0027677
0.00281638
0.00144531
)
;
    }
    wall
    {
        type            calculated;
        value           uniform 0;
    }
    back
    {
        type            wedge;
        value           nonuniform List<scalar> 
125
(
-5.52467e-05
-0.000165964
-0.000249318
-0.000451093
-0.000255236
-6.05932e-05
-0.00018318
-0.000269892
-0.000421679
-0.000187596
-4.63431e-05
-0.000142681
-0.000212038
-0.000311305
-0.000105768
-4.59587e-05
-0.000135304
-0.000189496
-0.000251666
-6.22592e-05
-3.35895e-05
-9.96448e-05
-0.000141082
-0.000179537
-2.57543e-05
-3.2129e-05
-9.17121e-05
-0.000124791
-0.000145536
-1.45782e-05
-2.62345e-05
-7.46977e-05
-0.000100963
-0.00010999
1.68277e-07
-2.41694e-05
-6.73516e-05
-8.85448e-05
-8.98501e-05
1.50722e-06
-2.12867e-05
-5.8848e-05
-7.58693e-05
-7.20297e-05
5.90901e-06
-1.9407e-05
-5.29758e-05
-6.66468e-05
-5.96432e-05
6.8612e-06
-1.7672e-05
-4.78175e-05
-5.87721e-05
-4.99385e-05
7.90067e-06
-1.62619e-05
-4.36246e-05
-5.23653e-05
-4.25564e-05
8.32427e-06
-1.50496e-05
-4.00863e-05
-4.70358e-05
-3.67519e-05
8.51735e-06
-1.40075e-05
-3.70744e-05
-4.25561e-05
-3.20385e-05
8.53885e-06
-1.30766e-05
-3.44214e-05
-3.86784e-05
-2.80401e-05
8.41172e-06
-1.22352e-05
-3.20306e-05
-3.52175e-05
-2.45384e-05
8.12656e-06
-1.13987e-05
-2.96957e-05
-3.19251e-05
-2.13335e-05
7.68465e-06
-1.06047e-05
-2.74479e-05
-2.87463e-05
-1.84152e-05
7.08686e-06
-9.67794e-06
-2.48986e-05
-2.53799e-05
-1.55857e-05
6.3778e-06
-8.83908e-06
-2.25084e-05
-2.21321e-05
-1.30689e-05
5.58091e-06
-7.67772e-06
-1.9341e-05
-1.84431e-05
-1.04909e-05
4.76084e-06
-6.84865e-06
-1.70096e-05
-1.54315e-05
-8.482e-06
3.95164e-06
-5.41089e-06
-1.30961e-05
-1.15618e-05
-6.20945e-06
3.13428e-06
-4.79674e-06
-1.16592e-05
-9.66378e-06
-4.99769e-06
2.4836e-06
-2.84836e-06
-7.05425e-06
-5.48849e-06
-2.84175e-06
1.24418e-06
)
;
    }
    front
    {
        type            wedge;
        value           nonuniform List<scalar> 
125
(
-5.52467e-05
-0.000165964
-0.000249318
-0.000451093
-0.000255236
-6.05932e-05
-0.00018318
-0.000269892
-0.000421679
-0.000187596
-4.63431e-05
-0.000142681
-0.000212038
-0.000311305
-0.000105768
-4.59587e-05
-0.000135304
-0.000189496
-0.000251666
-6.22591e-05
-3.35895e-05
-9.96448e-05
-0.000141082
-0.000179537
-2.57543e-05
-3.2129e-05
-9.17121e-05
-0.000124791
-0.000145537
-1.45796e-05
-2.62345e-05
-7.46977e-05
-0.000100962
-0.000109988
1.67769e-07
-2.41694e-05
-6.73518e-05
-8.85474e-05
-8.98602e-05
1.43459e-06
-2.12867e-05
-5.8848e-05
-7.58704e-05
-7.20335e-05
5.89732e-06
-1.9407e-05
-5.29758e-05
-6.66471e-05
-5.96443e-05
6.85953e-06
-1.7672e-05
-4.78175e-05
-5.87721e-05
-4.99388e-05
7.90027e-06
-1.62619e-05
-4.36246e-05
-5.23653e-05
-4.25565e-05
8.32415e-06
-1.50496e-05
-4.00863e-05
-4.70357e-05
-3.67519e-05
8.5173e-06
-1.40075e-05
-3.70744e-05
-4.25561e-05
-3.20385e-05
8.53882e-06
-1.30766e-05
-3.44214e-05
-3.86784e-05
-2.80401e-05
8.4117e-06
-1.22352e-05
-3.20306e-05
-3.52175e-05
-2.45384e-05
8.12655e-06
-1.13987e-05
-2.96957e-05
-3.19251e-05
-2.13335e-05
7.68464e-06
-1.06047e-05
-2.74479e-05
-2.87463e-05
-1.84152e-05
7.08686e-06
-9.67794e-06
-2.48986e-05
-2.53799e-05
-1.55857e-05
6.3778e-06
-8.83908e-06
-2.25084e-05
-2.21321e-05
-1.30689e-05
5.5809e-06
-7.67772e-06
-1.9341e-05
-1.84431e-05
-1.04909e-05
4.76084e-06
-6.84865e-06
-1.70096e-05
-1.54315e-05
-8.482e-06
3.95164e-06
-5.41089e-06
-1.30961e-05
-1.15618e-05
-6.20945e-06
3.13428e-06
-4.79674e-06
-1.16592e-05
-9.66378e-06
-4.99769e-06
2.4836e-06
-2.84836e-06
-7.05425e-06
-5.48849e-06
-2.84175e-06
1.24418e-06
)
;
    }
    axis
    {
        type            empty;
        value           nonuniform 0();
    }
}


// ************************************************************************* //
