/*--------------------------------*- C++ -*----------------------------------*\
  =========                 |
  \\      /  F ield         | OpenFOAM: The Open Source CFD Toolbox
   \\    /   O peration     | Website:  https://openfoam.org
    \\  /    A nd           | Version:  7
     \\/     M anipulation  |
\*---------------------------------------------------------------------------*/
FoamFile
{
    version     2.0;
    format      ascii;
    class       volVectorField;
    location    "2.5";
    object      U;
}
// * * * * * * * * * * * * * * * * * * * * * * * * * * * * * * * * * * * * * //

dimensions      [0 1 -1 0 0 0 0];

internalField   nonuniform List<vector> 
500
(
(0.00278625 -0.00965919 1.03324)
(0.000931116 -0.0100241 1.03324)
(-0.000931116 -0.0100241 1.03324)
(-0.00278625 -0.00965919 1.03324)
(0.0083888 -0.0300302 1.03184)
(0.00278576 -0.0311213 1.03184)
(-0.00278576 -0.0311213 1.03184)
(-0.0083888 -0.0300302 1.03184)
(0.0126228 -0.0463508 1.03626)
(0.0041926 -0.0479236 1.03626)
(-0.0041926 -0.0479236 1.03626)
(-0.0126228 -0.0463508 1.03626)
(0.0229509 -0.0867537 1.03507)
(0.00777422 -0.0895173 1.03503)
(-0.00777422 -0.0895173 1.03503)
(-0.0229509 -0.0867537 1.03507)
(0.0130259 -0.0502382 0.896529)
(0.00459865 -0.0517353 0.896445)
(-0.00459865 -0.0517353 0.896445)
(-0.0130259 -0.0502382 0.896529)
(0.00305504 -0.0104966 1.33489)
(0.00102344 -0.0108968 1.33489)
(-0.00102344 -0.0108968 1.33489)
(-0.00305504 -0.0104966 1.33489)
(0.00922692 -0.0314018 1.34146)
(0.00310057 -0.0326112 1.34146)
(-0.00310057 -0.0326112 1.34146)
(-0.00922692 -0.0314018 1.34146)
(0.0135484 -0.0449126 1.35298)
(0.00457773 -0.046697 1.35297)
(-0.00457773 -0.046697 1.35297)
(-0.0135484 -0.0449126 1.35298)
(0.0211555 -0.070378 1.31266)
(0.00714387 -0.0731459 1.31257)
(-0.00714387 -0.0731459 1.31257)
(-0.0211555 -0.070378 1.31266)
(0.00942791 -0.0298337 0.943776)
(0.00326221 -0.0310294 0.943629)
(-0.0032622 -0.0310294 0.943629)
(-0.0094279 -0.0298337 0.943776)
(0.00233182 -0.00804155 1.43532)
(0.000779585 -0.00834785 1.43532)
(-0.000779585 -0.00834785 1.43532)
(-0.00233182 -0.00804155 1.43532)
(0.00712939 -0.0246566 1.44474)
(0.00237317 -0.0256006 1.44474)
(-0.00237317 -0.0256006 1.44474)
(-0.00712939 -0.0246566 1.44474)
(0.0105308 -0.0358044 1.44228)
(0.00349994 -0.0372114 1.44228)
(-0.00349994 -0.0372114 1.44228)
(-0.0105308 -0.0358044 1.44228)
(0.0154889 -0.0520137 1.34619)
(0.00516369 -0.0540638 1.34615)
(-0.00516369 -0.0540638 1.34615)
(-0.0154889 -0.0520137 1.34619)
(0.00524921 -0.0165449 0.828423)
(0.00176668 -0.0172272 0.828362)
(-0.00176669 -0.0172272 0.828362)
(-0.00524922 -0.0165449 0.828423)
(0.00231652 -0.00796154 1.64138)
(0.000775874 -0.00826508 1.64138)
(-0.000775874 -0.00826508 1.64138)
(-0.00231652 -0.00796154 1.64138)
(0.00680752 -0.0231348 1.64716)
(0.00228661 -0.0240276 1.64716)
(-0.00228661 -0.0240276 1.64716)
(-0.00680752 -0.0231348 1.64716)
(0.00950669 -0.031189 1.62753)
(0.00321876 -0.0324418 1.62753)
(-0.00321876 -0.0324418 1.62753)
(-0.00950669 -0.031189 1.62753)
(0.0126192 -0.0411303 1.47763)
(0.00427685 -0.0427945 1.4776)
(-0.00427685 -0.0427945 1.4776)
(-0.0126192 -0.0411303 1.47763)
(0.00310089 -0.00843347 0.840164)
(0.00109294 -0.00884069 0.840114)
(-0.00109294 -0.00884069 0.840114)
(-0.00310088 -0.00843347 0.840164)
(0.00169072 -0.00582379 1.73779)
(0.000565547 -0.00604576 1.73779)
(-0.000565547 -0.00604576 1.73779)
(-0.00169072 -0.00582379 1.73779)
(0.00498276 -0.017125 1.74197)
(0.00166244 -0.0177841 1.74196)
(-0.00166244 -0.0177841 1.74196)
(-0.00498276 -0.017125 1.74197)
(0.0070067 -0.023704 1.70378)
(0.00233261 -0.02464 1.70378)
(-0.00233261 -0.02464 1.70378)
(-0.0070067 -0.023704 1.70378)
(0.00892548 -0.0300627 1.50195)
(0.00296986 -0.031252 1.50192)
(-0.00296985 -0.031252 1.50192)
(-0.00892547 -0.0300627 1.50195)
(0.00126341 -0.00373734 0.781844)
(0.00040106 -0.00391817 0.781807)
(-0.000401063 -0.00391817 0.781807)
(-0.00126341 -0.00373734 0.781844)
(0.00161914 -0.00557101 1.86168)
(0.000542084 -0.00578323 1.86168)
(-0.000542084 -0.00578323 1.86168)
(-0.00161914 -0.00557101 1.86168)
(0.00461059 -0.0157559 1.85925)
(0.0015455 -0.0163607 1.85925)
(-0.0015455 -0.0163607 1.85925)
(-0.00461059 -0.0157559 1.85925)
(0.00626204 -0.0207807 1.80216)
(0.00211437 -0.0216027 1.80215)
(-0.00211437 -0.0216027 1.80215)
(-0.00626205 -0.0207807 1.80216)
(0.00730827 -0.0239438 1.55531)
(0.0024797 -0.0249047 1.55528)
(-0.00247973 -0.0249047 1.55528)
(-0.0073083 -0.0239438 1.55531)
(0.000720303 -0.00108816 0.776502)
(0.000271464 -0.00119065 0.776472)
(-0.000271545 -0.00119065 0.776472)
(-0.000720373 -0.00108815 0.776502)
(0.00132131 -0.00454988 1.94756)
(0.000442152 -0.00472321 1.94756)
(-0.000442152 -0.00472321 1.94756)
(-0.00132131 -0.00454988 1.94756)
(0.00374578 -0.0128598 1.93989)
(0.001252 -0.0133531 1.93989)
(-0.001252 -0.0133531 1.93989)
(-0.00374578 -0.0128598 1.93989)
(0.00503469 -0.0169692 1.86394)
(0.00168588 -0.0176357 1.86394)
(-0.00168586 -0.0176357 1.86394)
(-0.00503466 -0.0169692 1.86394)
(0.00548261 -0.0184753 1.57476)
(0.00183332 -0.0192096 1.57473)
(-0.00183324 -0.0192096 1.57473)
(-0.00548253 -0.0184753 1.57476)
(-1.0401e-05 0.000209537 0.749164)
(-3.28713e-05 0.000184475 0.749138)
(3.28307e-05 0.000184464 0.749138)
(1.03713e-05 0.000209494 0.749164)
(0.00121787 -0.00419325 2.0325)
(0.00040764 -0.0043529 2.0325)
(-0.00040764 -0.0043529 2.0325)
(-0.00121787 -0.00419325 2.0325)
(0.00338403 -0.0116129 2.01783)
(0.00113263 -0.0120572 2.01783)
(-0.00113264 -0.0120572 2.01783)
(-0.00338404 -0.0116129 2.01783)
(0.0044405 -0.0149191 1.92307)
(0.0014936 -0.015502 1.92306)
(-0.00149375 -0.015502 1.92306)
(-0.00444063 -0.0149191 1.92307)
(0.00451111 -0.015026 1.59627)
(0.0015237 -0.0156206 1.59625)
(-0.00152422 -0.0156207 1.59625)
(-0.00451164 -0.0150262 1.59627)
(-7.8903e-05 0.00101522 0.737738)
(-1.83524e-05 0.0010143 0.737723)
(1.46818e-05 0.00101442 0.737723)
(7.51255e-05 0.00101545 0.737738)
(0.00107248 -0.00369337 2.10444)
(0.000358938 -0.00383399 2.10444)
(-0.000358937 -0.00383399 2.10444)
(-0.00107248 -0.00369337 2.10444)
(0.00295524 -0.0101542 2.08309)
(0.000988459 -0.0105425 2.08309)
(-0.000988459 -0.0105425 2.08309)
(-0.00295524 -0.0101542 2.08309)
(0.0038001 -0.0128265 1.96993)
(0.00127549 -0.0133265 1.96992)
(-0.00127555 -0.0133265 1.96992)
(-0.00380015 -0.0128265 1.96993)
(0.00360998 -0.0121552 1.60896)
(0.00121316 -0.0126356 1.60894)
(-0.00121334 -0.0126356 1.60894)
(-0.00361017 -0.0121552 1.60896)
(-0.000304283 0.0014134 0.724067)
(-0.000111517 0.00143576 0.72405)
(0.000110906 0.00143579 0.72405)
(0.00030369 0.00141349 0.724067)
(0.000977907 -0.00336801 2.17035)
(0.000327298 -0.00349621 2.17035)
(-0.000327298 -0.00349621 2.17035)
(-0.000977907 -0.00336801 2.17035)
(0.00266176 -0.00915237 2.14188)
(0.000890441 -0.00950174 2.14188)
(-0.000890439 -0.00950174 2.14188)
(-0.00266176 -0.00915237 2.14188)
(0.00334259 -0.0112974 2.01069)
(0.00112271 -0.0117361 2.01068)
(-0.00112272 -0.0117361 2.01068)
(-0.0033426 -0.0112974 2.01069)
(0.00299408 -0.0100892 1.61887)
(0.00100817 -0.010486 1.61885)
(-0.00100822 -0.010486 1.61885)
(-0.00299414 -0.0100892 1.61887)
(-0.000351105 0.00163822 0.713967)
(-0.00011963 0.00167093 0.713956)
(0.000119539 0.00167094 0.713956)
(0.000351021 0.00163824 0.713967)
(0.000890495 -0.0030672 2.22983)
(0.000298038 -0.00318393 2.22983)
(-0.000298038 -0.00318393 2.22983)
(-0.000890495 -0.0030672 2.22983)
(0.00240277 -0.00826683 2.19424)
(0.000803719 -0.00858214 2.19424)
(-0.000803718 -0.00858214 2.19424)
(-0.00240277 -0.00826683 2.19424)
(0.00294811 -0.00998069 2.04558)
(0.000989942 -0.0103675 2.04558)
(-0.000989945 -0.0103675 2.04558)
(-0.00294811 -0.00998069 2.04558)
(0.00250744 -0.00847747 1.6259)
(0.000843902 -0.00881041 1.62589)
(-0.000843919 -0.00881041 1.62589)
(-0.00250746 -0.00847746 1.6259)
(-0.000403622 0.00173941 0.705082)
(-0.000139301 0.0017789 0.705072)
(0.000139279 0.0017789 0.705072)
(0.000403601 0.00173941 0.705082)
(0.000819479 -0.00282281 2.28432)
(0.000274271 -0.00293022 2.28432)
(-0.000274271 -0.00293022 2.28432)
(-0.000819479 -0.00282281 2.28432)
(0.0021925 -0.00754755 2.24158)
(0.000733373 -0.00783518 2.24158)
(-0.000733373 -0.00783518 2.24158)
(-0.0021925 -0.00754755 2.24158)
(0.00262768 -0.0089073 2.07601)
(0.000882346 -0.0092518 2.07601)
(-0.000882346 -0.0092518 2.07601)
(-0.00262768 -0.0089073 2.07601)
(0.00213793 -0.00724239 1.63108)
(0.000719821 -0.00752629 1.63107)
(-0.000719827 -0.00752629 1.63107)
(-0.00213794 -0.00724239 1.63108)
(-0.000424576 0.00177816 0.697479)
(-0.000145866 0.00182137 0.69747)
(0.00014586 0.00182137 0.69747)
(0.00042457 0.00177816 0.697479)
(0.000758412 -0.0026126 2.33452)
(0.000253832 -0.002712 2.33452)
(-0.000253832 -0.002712 2.33452)
(-0.000758412 -0.0026126 2.33452)
(0.00201494 -0.00693928 2.28468)
(0.000673963 -0.00720356 2.28468)
(-0.000673963 -0.00720356 2.28468)
(-0.00201494 -0.00693928 2.28468)
(0.00236079 -0.00801076 2.10279)
(0.000792694 -0.0083201 2.10279)
(-0.000792693 -0.0083201 2.10279)
(-0.00236079 -0.00801076 2.10279)
(0.00184706 -0.0062676 1.6349)
(0.00062206 -0.00651298 1.63489)
(-0.000622062 -0.00651298 1.63489)
(-0.00184706 -0.0062676 1.6349)
(-0.000433993 0.00177882 0.690838)
(-0.000148936 0.00182401 0.690831)
(0.000148934 0.00182401 0.690831)
(0.000433991 0.00177882 0.690838)
(0.000705914 -0.00243186 2.38106)
(0.000236262 -0.00252439 2.38106)
(-0.000236262 -0.00252439 2.38106)
(-0.000705914 -0.00243186 2.38106)
(0.00186376 -0.00642098 2.32422)
(0.000623389 -0.00666538 2.32422)
(-0.000623389 -0.00666538 2.32422)
(-0.00186376 -0.00642098 2.32422)
(0.00213639 -0.00725535 2.12658)
(0.000717343 -0.00753514 2.12658)
(-0.000717343 -0.00753514 2.12658)
(-0.00213639 -0.00725535 2.12658)
(0.00161077 -0.0054737 1.63769)
(0.000542656 -0.00568779 1.63768)
(-0.000542657 -0.00568779 1.63768)
(-0.00161077 -0.0054737 1.63769)
(-0.000434777 0.00175547 0.684978)
(-0.000149087 0.00180142 0.684972)
(0.000149085 0.00180142 0.684972)
(0.000434775 0.00175547 0.684978)
(0.000659017 -0.00227039 2.42445)
(0.000220566 -0.00235676 2.42445)
(-0.000220566 -0.00235676 2.42445)
(-0.000659017 -0.00227039 2.42445)
(0.00173057 -0.00596391 2.36071)
(0.000578833 -0.00619081 2.36071)
(-0.000578833 -0.00619081 2.36071)
(-0.00173057 -0.00596391 2.36071)
(0.00194207 -0.00660015 2.14786)
(0.000652098 -0.00685437 2.14786)
(-0.000652097 -0.00685437 2.14786)
(-0.00194207 -0.00660015 2.14786)
(0.00141022 -0.00479846 1.63968)
(0.000475252 -0.00498602 1.63967)
(-0.000475252 -0.00498602 1.63967)
(-0.00141022 -0.00479846 1.63968)
(-0.000428102 0.00170985 0.679781)
(-0.00014678 0.00175551 0.679776)
(0.000146779 0.00175551 0.679776)
(0.000428101 0.00170985 0.679781)
(0.000616626 -0.00212442 2.46492)
(0.000206379 -0.00220524 2.46492)
(-0.000206379 -0.00220524 2.46492)
(-0.000616626 -0.00212442 2.46492)
(0.00161052 -0.00555167 2.39445)
(0.000538679 -0.0057628 2.39445)
(-0.000538679 -0.0057628 2.39445)
(-0.00161052 -0.00555167 2.39445)
(0.00176862 -0.00601446 2.16692)
(0.000593878 -0.00624587 2.16692)
(-0.000593878 -0.00624587 2.16692)
(-0.00176862 -0.00601446 2.16692)
(0.00123454 -0.00420613 1.64101)
(0.000416216 -0.00437044 1.641)
(-0.000416216 -0.00437044 1.641)
(-0.00123454 -0.00420613 1.64101)
(-0.000413475 0.00164019 0.675165)
(-0.000141774 0.0016845 0.675161)
(0.000141774 0.0016845 0.675161)
(0.000413474 0.00164019 0.675165)
(0.000574481 -0.00197929 2.50283)
(0.000192274 -0.00205458 2.50283)
(-0.000192274 -0.00205458 2.50283)
(-0.000574481 -0.00197929 2.50283)
(0.00149324 -0.00514866 2.42573)
(0.000499451 -0.00534438 2.42572)
(-0.000499451 -0.00534438 2.42572)
(-0.00149324 -0.00514866 2.42573)
(0.00160353 -0.00545656 2.18402)
(0.000538448 -0.00566628 2.18401)
(-0.000538448 -0.00566628 2.18401)
(-0.00160353 -0.00545656 2.18402)
(0.00107366 -0.00366315 1.6418)
(0.000362106 -0.0038062 1.6418)
(-0.000362105 -0.0038062 1.6418)
(-0.00107366 -0.00366315 1.6418)
(-0.000390965 0.0015432 0.671093)
(-0.0001342 0.00158509 0.671089)
(0.0001342 0.00158509 0.671089)
(0.000390965 0.0015432 0.671093)
(0.000534474 -0.0018415 2.53787)
(0.000178885 -0.00191155 2.53787)
(-0.000178885 -0.00191155 2.53787)
(-0.000534474 -0.0018415 2.53787)
(0.00138034 -0.00476056 2.45441)
(0.000461695 -0.00494145 2.45441)
(-0.000461695 -0.00494145 2.45441)
(-0.00138034 -0.00476056 2.45441)
(0.00144416 -0.00491697 2.19915)
(0.000484976 -0.00510575 2.19915)
(-0.000484976 -0.00510575 2.19915)
(-0.00144416 -0.00491697 2.19915)
(0.000927181 -0.00316838 1.64214)
(0.000312876 -0.00329201 1.64214)
(-0.000312876 -0.00329201 1.64214)
(-0.000927181 -0.00316838 1.64214)
(-0.000360564 0.00142212 0.66752)
(-0.000123808 0.00146065 0.667517)
(0.000123808 0.00146065 0.667517)
(0.000360564 0.00142212 0.66752)
(0.000487774 -0.00168067 2.57061)
(0.000163255 -0.00174459 2.57061)
(-0.000163255 -0.00174459 2.57061)
(-0.000487774 -0.00168067 2.57061)
(0.00125223 -0.00431977 2.48082)
(0.000418845 -0.00448385 2.48082)
(-0.000418845 -0.00448385 2.48082)
(-0.00125223 -0.00431977 2.48082)
(0.00127521 -0.00434493 2.21253)
(0.000428228 -0.00451157 2.21253)
(-0.000428228 -0.00451157 2.21253)
(-0.00127521 -0.00434493 2.21253)
(0.000784994 -0.00268766 1.64219)
(0.000264981 -0.00279248 1.64218)
(-0.000264981 -0.00279248 1.64218)
(-0.000784994 -0.00268766 1.64219)
(-0.000324566 0.00127696 0.664447)
(-0.000111725 0.00131141 0.664444)
(0.000111725 0.00131141 0.664444)
(0.000324566 0.00127696 0.664447)
(0.000445514 -0.00153511 2.59965)
(0.000149114 -0.00159349 2.59965)
(-0.000149114 -0.00159349 2.59965)
(-0.000445514 -0.00153511 2.59965)
(0.00113216 -0.00390664 2.50408)
(0.000378693 -0.00405496 2.50408)
(-0.000378693 -0.00405496 2.50408)
(-0.00113216 -0.00390664 2.50408)
(0.00111233 -0.00379174 2.22387)
(0.00037361 -0.00393698 2.22386)
(-0.00037361 -0.00393698 2.22386)
(-0.00111233 -0.00379174 2.22387)
(0.000658612 -0.00225984 1.64194)
(0.00022251 -0.00234782 1.64194)
(-0.00022251 -0.00234782 1.64194)
(-0.000658612 -0.00225984 1.64194)
(-0.00028406 0.00112268 0.661824)
(-9.77363e-05 0.00115263 0.661822)
(9.77362e-05 0.00115263 0.661822)
(0.00028406 0.00112268 0.661824)
(0.000386982 -0.00133352 2.62691)
(0.000129522 -0.00138423 2.62691)
(-0.000129523 -0.00138423 2.62691)
(-0.000386982 -0.00133352 2.62691)
(0.000972895 -0.003358 2.52536)
(0.000325419 -0.00348543 2.52536)
(-0.000325419 -0.00348543 2.52536)
(-0.000972895 -0.003358 2.52536)
(0.00092699 -0.00316317 2.23368)
(0.000311308 -0.00328417 2.23368)
(-0.000311308 -0.00328417 2.23368)
(-0.00092699 -0.00316317 2.23368)
(0.000528869 -0.00181945 1.64163)
(0.000178708 -0.00189028 1.64163)
(-0.000178708 -0.00189028 1.64163)
(-0.000528869 -0.00181945 1.64163)
(-0.00024243 0.000953844 0.659673)
(-8.38154e-05 0.000979111 0.659671)
(8.38154e-05 0.000979111 0.659671)
(0.000242429 0.000953844 0.659673)
(0.000345219 -0.00118963 2.64844)
(0.000115549 -0.00123486 2.64844)
(-0.00011555 -0.00123486 2.64844)
(-0.000345219 -0.00118963 2.64844)
(0.00085576 -0.00295477 2.54208)
(0.000286253 -0.00306683 2.54208)
(-0.000286253 -0.00306683 2.54208)
(-0.00085576 -0.00295477 2.54208)
(0.000775923 -0.00264838 2.24115)
(0.000260692 -0.00274955 2.24114)
(-0.000260692 -0.00274955 2.24114)
(-0.000775924 -0.00264838 2.24115)
(0.000427923 -0.00147704 1.64113)
(0.000144774 -0.00153433 1.64113)
(-0.000144774 -0.00153433 1.64113)
(-0.000427923 -0.00147704 1.64113)
(-0.000201258 0.000799627 0.657914)
(-6.94231e-05 0.000820447 0.657913)
(6.94231e-05 0.000820447 0.657913)
(0.000201258 0.000799627 0.657914)
(0.000272748 -0.00094002 2.67032)
(9.12908e-05 -0.000975755 2.67032)
(-9.1291e-05 -0.000975755 2.67032)
(-0.000272749 -0.00094002 2.67032)
(0.000658909 -0.00227577 2.55842)
(0.000220401 -0.00236205 2.55842)
(-0.000220402 -0.00236205 2.55842)
(-0.000658909 -0.00227577 2.55842)
(0.000581338 -0.0019867 2.24782)
(0.000195254 -0.00206247 2.24782)
(-0.000195254 -0.00206247 2.24782)
(-0.000581338 -0.0019867 2.24782)
(0.000313419 -0.00108345 1.64074)
(0.000106147 -0.00112552 1.64074)
(-0.000106147 -0.00112552 1.64074)
(-0.000313419 -0.00108345 1.64074)
(-0.000159697 0.000631121 0.656541)
(-5.53601e-05 0.000647441 0.656541)
(5.53601e-05 0.000647441 0.656541)
(0.000159697 0.000631121 0.656541)
(0.000241764 -0.000832926 2.68255)
(8.09257e-05 -0.000864602 2.68255)
(-8.0926e-05 -0.000864602 2.68255)
(-0.000241764 -0.000832926 2.68255)
(0.000586702 -0.00202755 2.56736)
(0.000196247 -0.00210435 2.56736)
(-0.000196247 -0.00210435 2.56736)
(-0.000586703 -0.00202755 2.56736)
(0.000485871 -0.00166043 2.25157)
(0.000163194 -0.00172378 2.25157)
(-0.000163194 -0.00172378 2.25157)
(-0.000485871 -0.00166043 2.25157)
(0.000252258 -0.000880368 1.64029)
(8.52111e-05 -0.000914335 1.64029)
(-8.52111e-05 -0.000914335 1.64029)
(-0.000252258 -0.000880368 1.64029)
(-0.000126613 0.000492086 0.655568)
(-4.43396e-05 0.000504812 0.655568)
(4.43396e-05 0.000504812 0.655568)
(0.000126613 0.000492086 0.655568)
(0.000143534 -0.00049421 2.70058)
(4.80508e-05 -0.000513017 2.70058)
(-4.8051e-05 -0.000513017 2.70058)
(-0.000143534 -0.00049421 2.70058)
(0.000354824 -0.00122374 2.58067)
(0.000118735 -0.0012702 2.58067)
(-0.000118735 -0.0012702 2.58067)
(-0.000354825 -0.00122374 2.58067)
(0.000275778 -0.00093539 2.25623)
(9.27899e-05 -0.000971335 2.25623)
(-9.279e-05 -0.000971335 2.25623)
(-0.000275778 -0.00093539 2.25623)
(0.000143513 -0.000496931 1.63994)
(4.86996e-05 -0.000516009 1.63994)
(-4.86996e-05 -0.000516009 1.63994)
(-0.000143513 -0.000496931 1.63994)
(-6.33288e-05 0.000257392 0.654568)
(-2.1592e-05 0.00026392 0.654568)
(2.1592e-05 0.00026392 0.654568)
(6.33288e-05 0.000257392 0.654568)
)
;

boundaryField
{
    inlet
    {
        type            uniformFixedValue;
        uniformValue    constant (0 0 1);
        value           uniform (0 0 1);
    }
    outlet
    {
        type            pressureInletOutletVelocity;
        value           nonuniform List<vector> 
20
(
(0.000143534 -0.00049421 2.70058)
(0.000354824 -0.00122374 2.58067)
(0.000275778 -0.00093539 2.25623)
(0.000143513 -0.000496931 1.63994)
(-6.33288e-05 0.000257392 0.654568)
(4.80508e-05 -0.000513017 2.70058)
(0.000118735 -0.0012702 2.58067)
(9.27899e-05 -0.000971335 2.25623)
(4.86996e-05 -0.000516009 1.63994)
(-2.1592e-05 0.00026392 0.654568)
(-4.8051e-05 -0.000513017 2.70058)
(-0.000118735 -0.0012702 2.58067)
(-9.279e-05 -0.000971335 2.25623)
(-4.86996e-05 -0.000516009 1.63994)
(2.1592e-05 0.00026392 0.654568)
(-0.000143534 -0.00049421 2.70058)
(-0.000354825 -0.00122374 2.58067)
(-0.000275778 -0.00093539 2.25623)
(-0.000143513 -0.000496931 1.63994)
(6.33288e-05 0.000257392 0.654568)
)
;
    }
    wall
    {
        type            fixedValue;
        value           uniform (0 0 0);
    }
    back
    {
        type            wedge;
    }
    front
    {
        type            wedge;
    }
    axis
    {
        type            empty;
    }
}


// ************************************************************************* //
