/*--------------------------------*- C++ -*----------------------------------*\
  =========                 |
  \\      /  F ield         | OpenFOAM: The Open Source CFD Toolbox
   \\    /   O peration     | Website:  https://openfoam.org
    \\  /    A nd           | Version:  7
     \\/     M anipulation  |
\*---------------------------------------------------------------------------*/
FoamFile
{
    version     2.0;
    format      ascii;
    class       volScalarField;
    location    "1";
    object      p;
}
// * * * * * * * * * * * * * * * * * * * * * * * * * * * * * * * * * * * * * //

dimensions      [0 2 -2 0 0 0 0];

internalField   nonuniform List<scalar> 
48000
(
2.39358
2.3936
2.39358
2.39349
2.39334
2.39313
2.39287
2.39254
2.39215
2.39171
2.3912
2.39063
2.39
2.38931
2.38857
2.38776
2.38689
2.38596
2.38498
2.38394
2.38284
2.38168
2.38047
2.3792
2.37788
2.37651
2.37509
2.37361
2.37209
2.37051
2.36889
2.36723
2.36552
2.36376
2.36197
2.36013
2.35825
2.35634
2.35439
2.3524
2.35038
2.34833
2.34624
2.34413
2.34199
2.33982
2.33762
2.33541
2.33317
2.3309
2.32862
2.32632
2.324
2.32166
2.31931
2.31694
2.31456
2.31217
2.30976
2.30735
2.30493
2.3025
2.30006
2.29762
2.29517
2.29271
2.29026
2.2878
2.28533
2.28287
2.2804
2.27794
2.27547
2.27301
2.27055
2.26809
2.26563
2.26318
2.26073
2.25829
2.25585
2.25341
2.25098
2.24856
2.24614
2.24373
2.24133
2.23893
2.23654
2.23416
2.23179
2.22943
2.22707
2.22472
2.22239
2.22006
2.21774
2.21543
2.21313
2.21084
2.20856
2.20628
2.20402
2.20177
2.19953
2.1973
2.19508
2.19287
2.19067
2.18848
2.1863
2.18413
2.18197
2.17983
2.17769
2.17556
2.17344
2.17133
2.16923
2.16714
2.16506
2.16299
2.16093
2.15888
2.15684
2.15481
2.15278
2.15076
2.14876
2.14676
2.14477
2.14278
2.14081
2.13884
2.13688
2.13492
2.13298
2.13103
2.1291
2.12717
2.12525
2.12333
2.12142
2.11952
2.11761
2.11572
2.11382
2.11193
2.11005
2.10816
2.10628
2.1044
2.10253
2.10065
2.09878
2.09691
2.09503
2.09316
2.09129
2.08942
2.08754
2.08567
2.08379
2.08191
2.08003
2.07814
2.07625
2.07436
2.07247
2.07057
2.06866
2.06675
2.06484
2.06292
2.061
2.05907
2.05713
2.05519
2.05325
2.05129
2.04933
2.04736
2.04539
2.04341
2.04142
2.03943
2.03742
2.03541
2.0334
2.03137
2.02934
2.0273
2.02525
2.0232
2.02113
2.01906
2.01698
2.01489
2.0128
2.01069
2.00858
2.00646
2.00433
2.00219
2.00005
1.99789
1.99573
1.99356
1.99138
1.98919
1.987
1.98479
1.98258
1.98036
1.97812
1.97589
1.97364
1.97138
1.96911
1.96684
1.96456
1.96226
1.95996
1.95765
1.95534
1.95301
1.95067
1.94833
1.94597
1.94361
1.94123
1.93885
1.93646
1.93406
1.93165
1.92923
1.9268
1.92436
1.92192
1.91946
1.91699
1.91452
1.91203
1.90954
1.90703
1.90452
1.902
1.89946
1.89692
1.89437
1.8918
1.88923
1.88665
1.88406
1.88145
1.87884
1.87622
1.87359
1.87094
1.86829
1.86563
1.86295
1.86027
1.85758
1.85487
1.85216
1.84943
1.84669
1.84395
1.84119
1.83842
1.83565
1.83286
1.83006
1.82725
1.82443
1.82159
1.81875
1.8159
1.81303
1.81015
1.80727
1.80437
1.80146
1.79854
1.79561
1.79266
1.78971
1.78674
1.78377
1.78078
1.77778
1.77477
1.77174
1.76871
1.76566
1.7626
1.75953
1.75645
1.75336
1.75025
1.74713
1.744
1.74086
1.73771
1.73454
1.73136
1.72817
1.72497
1.72176
1.71853
1.71529
1.71204
1.70877
1.70549
1.7022
1.6989
1.69559
1.69226
1.68892
1.68556
1.6822
1.67882
1.67542
1.67202
1.6686
1.66517
1.66172
1.65826
1.65479
1.6513
1.64781
1.64429
1.64077
1.63723
1.63368
1.63011
1.62653
1.62293
1.61933
1.6157
1.61207
1.60842
1.60475
1.60108
1.59738
1.59368
1.58996
1.58622
1.58247
1.57871
1.57493
1.57114
1.56733
1.56351
1.55967
1.55582
1.55195
1.54807
1.54418
1.54026
1.53634
1.5324
1.52844
1.52447
1.52048
1.51648
1.51246
1.50843
1.50438
1.50031
1.49623
1.49214
1.48802
1.4839
1.47975
1.47559
1.47142
1.46723
1.46302
1.4588
1.45456
1.4503
1.44603
1.44174
1.43743
1.43311
1.42877
1.42441
1.42004
1.41565
1.41125
1.40682
1.40238
1.39793
1.39345
1.38896
1.38445
1.37992
1.37538
1.37082
1.36624
1.36164
1.35703
1.3524
1.34775
1.34308
1.33839
1.33369
1.32897
1.32423
1.31947
1.31469
1.3099
1.30508
1.30025
1.2954
1.29053
1.28564
1.28074
1.27581
1.27087
1.2659
1.26092
1.25592
1.2509
1.24585
1.24079
1.23571
1.23062
1.2255
1.22036
1.2152
1.21002
1.20482
1.1996
1.19437
1.18911
1.18383
1.17853
1.17321
1.16787
1.16251
1.15713
1.15173
1.1463
1.14086
1.1354
1.12991
1.1244
1.11888
1.11333
1.10776
1.10216
1.09655
1.09092
1.08526
1.07958
1.07388
1.06816
1.06241
1.05665
1.05086
1.04505
1.03921
1.03336
1.02748
1.02158
1.01565
1.00971
1.00374
0.997743
0.991728
0.985689
0.979627
0.973541
0.967432
0.9613
0.955144
0.948964
0.94276
0.936533
0.930281
0.924006
0.917706
0.911382
0.905034
0.898661
0.892264
0.885842
0.879395
0.872924
0.866427
0.859906
0.853359
0.846787
0.84019
0.833568
0.82692
0.820246
0.813547
0.806822
0.800071
0.793294
0.78649
0.779661
0.772805
0.765923
0.759015
0.75208
0.745118
0.738129
0.731114
0.724071
0.717001
0.709904
0.70278
0.695628
0.688449
0.681242
0.674008
0.666745
0.659455
0.652136
0.644789
0.637414
0.630011
0.622579
0.615118
0.607629
0.600111
0.592563
0.584987
0.577382
0.569747
0.562083
0.55439
0.546666
0.538913
0.531131
0.523318
0.515475
0.507602
0.499698
0.491765
0.4838
0.475805
0.467779
0.459722
0.451635
0.443516
0.435365
0.427184
0.418971
0.410726
0.402449
0.394141
0.385801
0.377428
0.369023
0.360586
0.352117
0.343614
0.335079
0.326511
0.317911
0.309277
0.300609
0.291909
0.283175
0.274407
0.265605
0.25677
0.2479
0.238997
0.230059
0.221087
0.21208
0.203038
0.193962
0.18485
0.175704
0.166522
0.157305
0.148053
0.138764
0.129441
0.120081
0.110685
0.101253
0.0917843
0.0822794
0.0727379
0.0631597
0.0535446
0.0438924
0.0342031
0.0244765
0.0147124
0.00491043
2.39442
2.39445
2.39443
2.39434
2.39418
2.39397
2.3937
2.39336
2.39297
2.39251
2.39199
2.39141
2.39077
2.39007
2.38931
2.38848
2.3876
2.38665
2.38565
2.38459
2.38347
2.38229
2.38106
2.37977
2.37843
2.37703
2.37558
2.37409
2.37254
2.37094
2.3693
2.36761
2.36587
2.3641
2.36228
2.36042
2.35852
2.35658
2.35461
2.3526
2.35056
2.34849
2.34638
2.34425
2.34209
2.3399
2.33769
2.33546
2.3332
2.33092
2.32862
2.32631
2.32397
2.32162
2.31926
2.31688
2.31449
2.31208
2.30967
2.30725
2.30482
2.30238
2.29993
2.29748
2.29502
2.29256
2.2901
2.28763
2.28517
2.2827
2.28023
2.27776
2.27529
2.27282
2.27036
2.2679
2.26544
2.26299
2.26053
2.25809
2.25565
2.25321
2.25078
2.24836
2.24594
2.24353
2.24113
2.23873
2.23634
2.23396
2.23159
2.22923
2.22687
2.22453
2.22219
2.21987
2.21755
2.21524
2.21294
2.21065
2.20837
2.2061
2.20384
2.2016
2.19936
2.19713
2.19491
2.1927
2.19051
2.18832
2.18614
2.18397
2.18182
2.17967
2.17754
2.17541
2.17329
2.17119
2.16909
2.16701
2.16493
2.16286
2.1608
2.15875
2.15671
2.15468
2.15266
2.15065
2.14864
2.14665
2.14466
2.14268
2.14071
2.13874
2.13678
2.13483
2.13289
2.13095
2.12902
2.12709
2.12517
2.12326
2.12135
2.11945
2.11755
2.11565
2.11376
2.11188
2.10999
2.10811
2.10623
2.10436
2.10248
2.10061
2.09874
2.09687
2.095
2.09313
2.09126
2.08939
2.08752
2.08564
2.08377
2.08189
2.08001
2.07812
2.07624
2.07435
2.07245
2.07055
2.06865
2.06674
2.06483
2.06291
2.06099
2.05906
2.05713
2.05519
2.05324
2.05129
2.04933
2.04736
2.04539
2.04341
2.04142
2.03943
2.03742
2.03541
2.0334
2.03137
2.02934
2.0273
2.02525
2.0232
2.02113
2.01906
2.01698
2.01489
2.0128
2.01069
2.00858
2.00646
2.00433
2.00219
2.00005
1.99789
1.99573
1.99356
1.99138
1.98919
1.987
1.98479
1.98258
1.98036
1.97812
1.97589
1.97364
1.97138
1.96911
1.96684
1.96456
1.96227
1.95996
1.95765
1.95534
1.95301
1.95067
1.94833
1.94597
1.94361
1.94123
1.93885
1.93646
1.93406
1.93165
1.92923
1.9268
1.92436
1.92192
1.91946
1.91699
1.91452
1.91203
1.90954
1.90703
1.90452
1.902
1.89946
1.89692
1.89437
1.8918
1.88923
1.88665
1.88406
1.88145
1.87884
1.87622
1.87359
1.87094
1.86829
1.86563
1.86295
1.86027
1.85758
1.85487
1.85216
1.84943
1.84669
1.84395
1.84119
1.83842
1.83565
1.83286
1.83006
1.82725
1.82443
1.82159
1.81875
1.8159
1.81303
1.81015
1.80727
1.80437
1.80146
1.79854
1.79561
1.79266
1.78971
1.78674
1.78377
1.78078
1.77778
1.77477
1.77174
1.76871
1.76566
1.7626
1.75953
1.75645
1.75336
1.75025
1.74713
1.744
1.74086
1.73771
1.73454
1.73136
1.72817
1.72497
1.72176
1.71853
1.71529
1.71204
1.70877
1.70549
1.7022
1.6989
1.69559
1.69226
1.68892
1.68556
1.6822
1.67882
1.67542
1.67202
1.6686
1.66517
1.66172
1.65826
1.65479
1.6513
1.64781
1.64429
1.64077
1.63723
1.63368
1.63011
1.62653
1.62293
1.61933
1.6157
1.61207
1.60842
1.60475
1.60108
1.59738
1.59368
1.58996
1.58622
1.58247
1.57871
1.57493
1.57114
1.56733
1.56351
1.55967
1.55582
1.55195
1.54807
1.54418
1.54026
1.53634
1.5324
1.52844
1.52447
1.52048
1.51648
1.51246
1.50843
1.50438
1.50031
1.49623
1.49214
1.48802
1.4839
1.47975
1.47559
1.47142
1.46723
1.46302
1.4588
1.45456
1.4503
1.44603
1.44174
1.43743
1.43311
1.42877
1.42441
1.42004
1.41565
1.41125
1.40682
1.40238
1.39793
1.39345
1.38896
1.38445
1.37992
1.37538
1.37082
1.36624
1.36164
1.35703
1.3524
1.34775
1.34308
1.33839
1.33369
1.32897
1.32423
1.31947
1.31469
1.3099
1.30508
1.30025
1.2954
1.29053
1.28564
1.28074
1.27581
1.27087
1.2659
1.26092
1.25592
1.2509
1.24585
1.24079
1.23571
1.23062
1.2255
1.22036
1.2152
1.21002
1.20482
1.1996
1.19437
1.18911
1.18383
1.17853
1.17321
1.16787
1.16251
1.15713
1.15173
1.1463
1.14086
1.1354
1.12991
1.1244
1.11888
1.11333
1.10776
1.10216
1.09655
1.09092
1.08526
1.07958
1.07388
1.06816
1.06241
1.05665
1.05086
1.04505
1.03921
1.03336
1.02748
1.02158
1.01565
1.00971
1.00374
0.997743
0.991728
0.985689
0.979627
0.973541
0.967432
0.9613
0.955144
0.948964
0.94276
0.936533
0.930281
0.924006
0.917706
0.911382
0.905034
0.898661
0.892264
0.885842
0.879395
0.872924
0.866427
0.859906
0.853359
0.846787
0.84019
0.833568
0.82692
0.820246
0.813547
0.806822
0.800071
0.793294
0.78649
0.779661
0.772805
0.765923
0.759015
0.75208
0.745118
0.738129
0.731114
0.724071
0.717001
0.709904
0.70278
0.695628
0.688449
0.681242
0.674008
0.666745
0.659455
0.652136
0.644789
0.637414
0.630011
0.622579
0.615118
0.607629
0.600111
0.592563
0.584987
0.577382
0.569747
0.562083
0.55439
0.546666
0.538913
0.531131
0.523318
0.515475
0.507602
0.499698
0.491765
0.4838
0.475805
0.467779
0.459722
0.451635
0.443516
0.435365
0.427184
0.418971
0.410726
0.402449
0.394141
0.385801
0.377428
0.369023
0.360586
0.352117
0.343614
0.335079
0.326511
0.317911
0.309277
0.300609
0.291909
0.283175
0.274407
0.265605
0.25677
0.2479
0.238997
0.230059
0.221087
0.21208
0.203038
0.193962
0.18485
0.175704
0.166522
0.157305
0.148053
0.138764
0.129441
0.120081
0.110685
0.101253
0.0917843
0.0822794
0.0727379
0.0631597
0.0535446
0.0438924
0.0342031
0.0244765
0.0147124
0.00491042
2.39603
2.39606
2.39604
2.39594
2.39578
2.39556
2.39528
2.39493
2.39452
2.39404
2.3935
2.3929
2.39223
2.3915
2.39071
2.38985
2.38894
2.38796
2.38692
2.38582
2.38466
2.38344
2.38217
2.38084
2.37945
2.37801
2.37652
2.37498
2.37338
2.37174
2.37005
2.36832
2.36654
2.36472
2.36286
2.36095
2.35901
2.35703
2.35502
2.35297
2.35089
2.34878
2.34664
2.34447
2.34227
2.34005
2.33781
2.33554
2.33325
2.33095
2.32862
2.32628
2.32392
2.32154
2.31915
2.31675
2.31434
2.31192
2.30949
2.30705
2.3046
2.30214
2.29968
2.29722
2.29475
2.29228
2.2898
2.28733
2.28485
2.28237
2.27989
2.27742
2.27494
2.27247
2.27
2.26754
2.26507
2.26262
2.26016
2.25771
2.25527
2.25283
2.2504
2.24798
2.24556
2.24315
2.24075
2.23835
2.23597
2.23359
2.23122
2.22886
2.22651
2.22416
2.22183
2.2195
2.21719
2.21488
2.21259
2.2103
2.20803
2.20576
2.20351
2.20126
2.19903
2.1968
2.19459
2.19239
2.19019
2.18801
2.18584
2.18368
2.18152
2.17938
2.17725
2.17513
2.17302
2.17092
2.16883
2.16675
2.16467
2.16261
2.16056
2.15852
2.15648
2.15446
2.15244
2.15043
2.14843
2.14644
2.14446
2.14248
2.14052
2.13856
2.1366
2.13466
2.13272
2.13079
2.12886
2.12694
2.12503
2.12312
2.12122
2.11932
2.11743
2.11554
2.11365
2.11177
2.10989
2.10802
2.10614
2.10427
2.1024
2.10053
2.09867
2.0968
2.09494
2.09307
2.0912
2.08934
2.08747
2.0856
2.08372
2.08185
2.07997
2.07809
2.07621
2.07432
2.07243
2.07053
2.06863
2.06673
2.06482
2.0629
2.06098
2.05905
2.05712
2.05518
2.05323
2.05128
2.04932
2.04736
2.04538
2.0434
2.04142
2.03942
2.03742
2.03541
2.0334
2.03137
2.02934
2.0273
2.02525
2.0232
2.02113
2.01906
2.01698
2.01489
2.0128
2.01069
2.00858
2.00646
2.00433
2.00219
2.00005
1.99789
1.99573
1.99356
1.99138
1.98919
1.987
1.98479
1.98258
1.98036
1.97813
1.97589
1.97364
1.97138
1.96912
1.96684
1.96456
1.96227
1.95996
1.95765
1.95534
1.95301
1.95067
1.94833
1.94597
1.94361
1.94123
1.93885
1.93646
1.93406
1.93165
1.92923
1.9268
1.92436
1.92192
1.91946
1.91699
1.91452
1.91203
1.90954
1.90703
1.90452
1.902
1.89946
1.89692
1.89437
1.8918
1.88923
1.88665
1.88406
1.88145
1.87884
1.87622
1.87359
1.87094
1.86829
1.86563
1.86295
1.86027
1.85758
1.85487
1.85216
1.84943
1.84669
1.84395
1.84119
1.83842
1.83565
1.83286
1.83006
1.82725
1.82443
1.82159
1.81875
1.8159
1.81303
1.81015
1.80727
1.80437
1.80146
1.79854
1.79561
1.79266
1.78971
1.78674
1.78377
1.78078
1.77778
1.77477
1.77174
1.76871
1.76566
1.7626
1.75953
1.75645
1.75336
1.75025
1.74713
1.744
1.74086
1.73771
1.73454
1.73136
1.72817
1.72497
1.72176
1.71853
1.71529
1.71204
1.70877
1.70549
1.7022
1.6989
1.69559
1.69226
1.68892
1.68556
1.6822
1.67882
1.67542
1.67202
1.6686
1.66517
1.66172
1.65826
1.65479
1.6513
1.64781
1.64429
1.64077
1.63723
1.63368
1.63011
1.62653
1.62293
1.61933
1.6157
1.61207
1.60842
1.60475
1.60108
1.59738
1.59368
1.58996
1.58622
1.58247
1.57871
1.57493
1.57114
1.56733
1.56351
1.55967
1.55582
1.55195
1.54807
1.54418
1.54026
1.53634
1.5324
1.52844
1.52447
1.52048
1.51648
1.51246
1.50843
1.50438
1.50031
1.49623
1.49214
1.48802
1.4839
1.47975
1.47559
1.47142
1.46723
1.46302
1.4588
1.45456
1.4503
1.44603
1.44174
1.43743
1.43311
1.42877
1.42441
1.42004
1.41565
1.41125
1.40682
1.40238
1.39793
1.39345
1.38896
1.38445
1.37992
1.37538
1.37082
1.36624
1.36164
1.35703
1.3524
1.34775
1.34308
1.33839
1.33369
1.32897
1.32423
1.31947
1.31469
1.3099
1.30508
1.30025
1.2954
1.29053
1.28564
1.28074
1.27581
1.27087
1.2659
1.26092
1.25592
1.2509
1.24585
1.24079
1.23571
1.23062
1.2255
1.22036
1.2152
1.21002
1.20482
1.1996
1.19437
1.18911
1.18383
1.17853
1.17321
1.16787
1.16251
1.15713
1.15173
1.1463
1.14086
1.1354
1.12991
1.1244
1.11888
1.11333
1.10776
1.10216
1.09655
1.09092
1.08526
1.07958
1.07388
1.06816
1.06241
1.05665
1.05086
1.04505
1.03921
1.03336
1.02748
1.02158
1.01565
1.00971
1.00374
0.997743
0.991728
0.985689
0.979627
0.973541
0.967432
0.9613
0.955144
0.948964
0.94276
0.936533
0.930281
0.924006
0.917706
0.911382
0.905034
0.898661
0.892264
0.885842
0.879395
0.872924
0.866427
0.859906
0.853359
0.846787
0.84019
0.833568
0.82692
0.820246
0.813547
0.806822
0.800071
0.793294
0.78649
0.779661
0.772805
0.765923
0.759015
0.75208
0.745118
0.738129
0.731114
0.724071
0.717001
0.709904
0.70278
0.695628
0.688449
0.681242
0.674008
0.666745
0.659455
0.652136
0.644789
0.637414
0.630011
0.622579
0.615118
0.607629
0.600111
0.592563
0.584987
0.577382
0.569747
0.562083
0.55439
0.546666
0.538913
0.531131
0.523318
0.515475
0.507602
0.499698
0.491765
0.4838
0.475805
0.467779
0.459722
0.451635
0.443516
0.435365
0.427184
0.418971
0.410726
0.402449
0.394141
0.385801
0.377428
0.369023
0.360586
0.352117
0.343614
0.335079
0.326511
0.317911
0.309277
0.300609
0.291909
0.283175
0.274407
0.265605
0.25677
0.2479
0.238997
0.230059
0.221087
0.21208
0.203038
0.193962
0.18485
0.175704
0.166522
0.157305
0.148053
0.138764
0.129441
0.120081
0.110685
0.101253
0.0917843
0.0822794
0.0727379
0.0631597
0.0535446
0.0438924
0.0342031
0.0244765
0.0147123
0.0049104
2.39834
2.39837
2.39834
2.39824
2.39807
2.39784
2.39754
2.39717
2.39673
2.39623
2.39566
2.39502
2.39432
2.39355
2.39271
2.39181
2.39085
2.38982
2.38872
2.38757
2.38635
2.38508
2.38374
2.38235
2.3809
2.3794
2.37784
2.37623
2.37458
2.37287
2.37112
2.36932
2.36747
2.36559
2.36366
2.3617
2.35969
2.35766
2.35558
2.35348
2.35134
2.34918
2.34698
2.34476
2.34252
2.34025
2.33796
2.33565
2.33331
2.33097
2.3286
2.32622
2.32382
2.32141
2.31899
2.31656
2.31412
2.31167
2.30921
2.30675
2.30427
2.3018
2.29932
2.29683
2.29435
2.29186
2.28937
2.28688
2.28439
2.2819
2.27941
2.27693
2.27444
2.27196
2.26949
2.26702
2.26455
2.26209
2.25963
2.25718
2.25473
2.2523
2.24986
2.24744
2.24502
2.24261
2.24021
2.23782
2.23543
2.23306
2.23069
2.22833
2.22598
2.22364
2.22131
2.21899
2.21668
2.21438
2.21209
2.20981
2.20754
2.20528
2.20303
2.20079
2.19856
2.19634
2.19413
2.19194
2.18975
2.18757
2.18541
2.18325
2.18111
2.17897
2.17685
2.17473
2.17263
2.17054
2.16845
2.16638
2.16431
2.16226
2.16021
2.15818
2.15615
2.15413
2.15213
2.15013
2.14813
2.14615
2.14418
2.14221
2.14025
2.1383
2.13635
2.13442
2.13249
2.13056
2.12864
2.12673
2.12483
2.12293
2.12103
2.11914
2.11726
2.11537
2.1135
2.11162
2.10975
2.10788
2.10601
2.10415
2.10229
2.10043
2.09857
2.09671
2.09485
2.09299
2.09113
2.08926
2.0874
2.08553
2.08367
2.0818
2.07992
2.07805
2.07617
2.07428
2.07239
2.0705
2.0686
2.0667
2.06479
2.06288
2.06096
2.05904
2.0571
2.05517
2.05322
2.05127
2.04931
2.04735
2.04538
2.0434
2.04141
2.03942
2.03742
2.03541
2.03339
2.03137
2.02934
2.0273
2.02525
2.0232
2.02113
2.01906
2.01698
2.01489
2.0128
2.01069
2.00858
2.00646
2.00433
2.00219
2.00005
1.99789
1.99573
1.99356
1.99138
1.98919
1.987
1.98479
1.98258
1.98036
1.97813
1.97589
1.97364
1.97138
1.96912
1.96684
1.96456
1.96227
1.95996
1.95765
1.95534
1.95301
1.95067
1.94833
1.94597
1.94361
1.94123
1.93885
1.93646
1.93406
1.93165
1.92923
1.9268
1.92436
1.92192
1.91946
1.91699
1.91452
1.91203
1.90954
1.90703
1.90452
1.902
1.89946
1.89692
1.89437
1.8918
1.88923
1.88665
1.88406
1.88145
1.87884
1.87622
1.87359
1.87094
1.86829
1.86563
1.86295
1.86027
1.85758
1.85487
1.85216
1.84943
1.84669
1.84395
1.84119
1.83842
1.83565
1.83286
1.83006
1.82725
1.82443
1.82159
1.81875
1.8159
1.81303
1.81015
1.80727
1.80437
1.80146
1.79854
1.79561
1.79266
1.78971
1.78674
1.78377
1.78078
1.77778
1.77477
1.77174
1.76871
1.76566
1.7626
1.75953
1.75645
1.75336
1.75025
1.74713
1.744
1.74086
1.73771
1.73454
1.73136
1.72817
1.72497
1.72176
1.71853
1.71529
1.71204
1.70877
1.70549
1.7022
1.6989
1.69559
1.69226
1.68892
1.68556
1.6822
1.67882
1.67542
1.67202
1.6686
1.66517
1.66172
1.65826
1.65479
1.6513
1.64781
1.64429
1.64077
1.63723
1.63368
1.63011
1.62653
1.62293
1.61933
1.6157
1.61207
1.60842
1.60475
1.60108
1.59738
1.59368
1.58996
1.58622
1.58247
1.57871
1.57493
1.57114
1.56733
1.56351
1.55967
1.55582
1.55195
1.54807
1.54418
1.54026
1.53634
1.5324
1.52844
1.52447
1.52048
1.51648
1.51246
1.50843
1.50438
1.50031
1.49623
1.49214
1.48802
1.4839
1.47975
1.47559
1.47142
1.46723
1.46302
1.4588
1.45456
1.4503
1.44603
1.44174
1.43743
1.43311
1.42877
1.42441
1.42004
1.41565
1.41125
1.40682
1.40238
1.39793
1.39345
1.38896
1.38445
1.37992
1.37538
1.37082
1.36624
1.36164
1.35703
1.3524
1.34775
1.34308
1.33839
1.33369
1.32897
1.32423
1.31947
1.31469
1.3099
1.30508
1.30025
1.2954
1.29053
1.28564
1.28074
1.27581
1.27087
1.2659
1.26092
1.25592
1.2509
1.24585
1.24079
1.23571
1.23062
1.2255
1.22036
1.2152
1.21002
1.20482
1.1996
1.19437
1.18911
1.18383
1.17853
1.17321
1.16787
1.16251
1.15713
1.15173
1.1463
1.14086
1.1354
1.12991
1.1244
1.11888
1.11333
1.10776
1.10216
1.09655
1.09092
1.08526
1.07958
1.07388
1.06816
1.06241
1.05665
1.05086
1.04505
1.03921
1.03336
1.02748
1.02158
1.01565
1.00971
1.00374
0.997743
0.991728
0.985689
0.979627
0.973541
0.967432
0.9613
0.955144
0.948964
0.94276
0.936533
0.930281
0.924006
0.917706
0.911382
0.905034
0.898661
0.892264
0.885842
0.879395
0.872924
0.866427
0.859906
0.853359
0.846787
0.84019
0.833568
0.82692
0.820246
0.813547
0.806822
0.800071
0.793294
0.78649
0.779661
0.772805
0.765923
0.759015
0.75208
0.745118
0.738129
0.731114
0.724071
0.717001
0.709904
0.70278
0.695628
0.688449
0.681242
0.674008
0.666745
0.659455
0.652136
0.644789
0.637414
0.630011
0.622579
0.615118
0.607629
0.600111
0.592563
0.584987
0.577382
0.569747
0.562083
0.55439
0.546666
0.538913
0.531131
0.523318
0.515475
0.507602
0.499698
0.491765
0.4838
0.475805
0.467779
0.459722
0.451635
0.443516
0.435365
0.427184
0.418971
0.410726
0.402449
0.394141
0.385801
0.377428
0.369023
0.360586
0.352117
0.343614
0.335079
0.326511
0.317911
0.309277
0.300609
0.291909
0.283175
0.274407
0.265605
0.25677
0.2479
0.238997
0.230059
0.221087
0.21208
0.203038
0.193962
0.18485
0.175704
0.166522
0.157305
0.148053
0.138764
0.129441
0.120081
0.110685
0.101253
0.0917843
0.0822794
0.0727379
0.0631597
0.0535446
0.0438924
0.0342031
0.0244765
0.0147123
0.00491038
2.40129
2.40133
2.4013
2.4012
2.40101
2.40076
2.40044
2.40004
2.39957
2.39904
2.39842
2.39774
2.39699
2.39616
2.39527
2.39431
2.39328
2.39218
2.39102
2.38979
2.3885
2.38714
2.38573
2.38426
2.38273
2.38114
2.3795
2.37781
2.37607
2.37427
2.37244
2.37055
2.36863
2.36666
2.36465
2.36261
2.36053
2.35841
2.35627
2.35409
2.35188
2.34965
2.34738
2.3451
2.34279
2.34046
2.33811
2.33574
2.33336
2.33096
2.32854
2.32612
2.32368
2.32122
2.31876
2.31629
2.31381
2.31133
2.30884
2.30634
2.30384
2.30134
2.29884
2.29633
2.29382
2.29131
2.28881
2.2863
2.28379
2.28129
2.27879
2.27629
2.2738
2.27131
2.26883
2.26635
2.26388
2.26141
2.25895
2.2565
2.25405
2.25161
2.24918
2.24675
2.24433
2.24193
2.23953
2.23713
2.23475
2.23238
2.23002
2.22766
2.22532
2.22298
2.22066
2.21834
2.21604
2.21374
2.21146
2.20918
2.20692
2.20467
2.20243
2.20019
2.19797
2.19576
2.19356
2.19137
2.18919
2.18703
2.18487
2.18272
2.18059
2.17846
2.17634
2.17424
2.17214
2.17006
2.16798
2.16592
2.16386
2.16182
2.15978
2.15776
2.15574
2.15373
2.15173
2.14974
2.14776
2.14579
2.14382
2.14187
2.13992
2.13798
2.13604
2.13412
2.13219
2.13028
2.12837
2.12647
2.12458
2.12268
2.1208
2.11892
2.11704
2.11517
2.1133
2.11144
2.10957
2.10771
2.10586
2.104
2.10215
2.10029
2.09844
2.09659
2.09474
2.09288
2.09103
2.08917
2.08732
2.08546
2.0836
2.08173
2.07986
2.07799
2.07612
2.07424
2.07235
2.07046
2.06857
2.06667
2.06477
2.06286
2.06094
2.05902
2.05709
2.05515
2.05321
2.05126
2.0493
2.04734
2.04537
2.04339
2.04141
2.03942
2.03742
2.03541
2.03339
2.03137
2.02934
2.0273
2.02525
2.0232
2.02113
2.01906
2.01698
2.01489
2.0128
2.01069
2.00858
2.00646
2.00433
2.0022
2.00005
1.9979
1.99573
1.99356
1.99138
1.98919
1.987
1.98479
1.98258
1.98036
1.97813
1.97589
1.97364
1.97138
1.96912
1.96684
1.96456
1.96227
1.95997
1.95766
1.95534
1.95301
1.95067
1.94833
1.94597
1.94361
1.94123
1.93885
1.93646
1.93406
1.93165
1.92923
1.9268
1.92436
1.92192
1.91946
1.91699
1.91452
1.91203
1.90954
1.90703
1.90452
1.902
1.89946
1.89692
1.89437
1.8918
1.88923
1.88665
1.88406
1.88145
1.87884
1.87622
1.87359
1.87094
1.86829
1.86563
1.86295
1.86027
1.85758
1.85487
1.85216
1.84943
1.84669
1.84395
1.84119
1.83842
1.83565
1.83286
1.83006
1.82725
1.82443
1.82159
1.81875
1.8159
1.81303
1.81015
1.80727
1.80437
1.80146
1.79854
1.79561
1.79266
1.78971
1.78674
1.78377
1.78078
1.77778
1.77477
1.77174
1.76871
1.76566
1.7626
1.75953
1.75645
1.75336
1.75025
1.74713
1.744
1.74086
1.73771
1.73454
1.73136
1.72817
1.72497
1.72176
1.71853
1.71529
1.71204
1.70877
1.70549
1.7022
1.6989
1.69559
1.69226
1.68892
1.68556
1.6822
1.67882
1.67542
1.67202
1.6686
1.66517
1.66172
1.65826
1.65479
1.6513
1.64781
1.64429
1.64077
1.63723
1.63368
1.63011
1.62653
1.62293
1.61933
1.6157
1.61207
1.60842
1.60475
1.60108
1.59738
1.59368
1.58996
1.58622
1.58247
1.57871
1.57493
1.57114
1.56733
1.56351
1.55967
1.55582
1.55195
1.54807
1.54418
1.54026
1.53634
1.5324
1.52844
1.52447
1.52048
1.51648
1.51246
1.50843
1.50438
1.50031
1.49623
1.49214
1.48802
1.4839
1.47975
1.47559
1.47142
1.46723
1.46302
1.4588
1.45456
1.4503
1.44603
1.44174
1.43743
1.43311
1.42877
1.42441
1.42004
1.41565
1.41125
1.40682
1.40238
1.39793
1.39345
1.38896
1.38445
1.37992
1.37538
1.37082
1.36624
1.36164
1.35703
1.3524
1.34775
1.34308
1.33839
1.33369
1.32897
1.32423
1.31947
1.31469
1.3099
1.30508
1.30025
1.2954
1.29053
1.28564
1.28074
1.27581
1.27087
1.2659
1.26092
1.25592
1.2509
1.24585
1.24079
1.23571
1.23062
1.2255
1.22036
1.2152
1.21002
1.20482
1.1996
1.19437
1.18911
1.18383
1.17853
1.17321
1.16787
1.16251
1.15713
1.15173
1.1463
1.14086
1.1354
1.12991
1.1244
1.11888
1.11333
1.10776
1.10216
1.09655
1.09092
1.08526
1.07958
1.07388
1.06816
1.06241
1.05665
1.05086
1.04505
1.03921
1.03336
1.02748
1.02158
1.01565
1.00971
1.00374
0.997743
0.991728
0.985689
0.979627
0.973541
0.967432
0.9613
0.955144
0.948964
0.94276
0.936533
0.930281
0.924006
0.917706
0.911382
0.905034
0.898661
0.892264
0.885842
0.879395
0.872924
0.866427
0.859906
0.853359
0.846787
0.84019
0.833568
0.82692
0.820246
0.813547
0.806822
0.800071
0.793294
0.78649
0.779661
0.772805
0.765923
0.759015
0.75208
0.745118
0.738129
0.731114
0.724071
0.717001
0.709904
0.70278
0.695628
0.688449
0.681242
0.674008
0.666745
0.659455
0.652136
0.644789
0.637414
0.630011
0.622579
0.615118
0.607629
0.600111
0.592563
0.584987
0.577382
0.569747
0.562083
0.55439
0.546666
0.538913
0.531131
0.523318
0.515475
0.507602
0.499698
0.491765
0.4838
0.475805
0.467779
0.459722
0.451635
0.443516
0.435365
0.427184
0.418971
0.410726
0.402449
0.394141
0.385801
0.377428
0.369023
0.360586
0.352117
0.343614
0.335079
0.326511
0.317911
0.309277
0.300609
0.291909
0.283175
0.274407
0.265605
0.25677
0.2479
0.238997
0.230059
0.221087
0.21208
0.203038
0.193962
0.18485
0.175704
0.166522
0.157305
0.148053
0.138764
0.129441
0.120081
0.110685
0.101253
0.0917843
0.0822794
0.0727379
0.0631597
0.0535446
0.0438924
0.0342031
0.0244765
0.0147123
0.00491036
2.40487
2.40491
2.40488
2.40476
2.40457
2.40429
2.40394
2.40351
2.403
2.40242
2.40175
2.40101
2.4002
2.3993
2.39834
2.3973
2.39619
2.395
2.39375
2.39243
2.39105
2.3896
2.38808
2.38651
2.38488
2.38319
2.38145
2.37965
2.37781
2.37591
2.37397
2.37199
2.36996
2.36789
2.36579
2.36365
2.36147
2.35927
2.35703
2.35476
2.35247
2.35015
2.34781
2.34545
2.34307
2.34067
2.33825
2.33582
2.33337
2.33091
2.32843
2.32595
2.32346
2.32096
2.31845
2.31594
2.31342
2.31089
2.30836
2.30583
2.3033
2.30077
2.29824
2.2957
2.29317
2.29064
2.28811
2.28559
2.28307
2.28055
2.27804
2.27553
2.27302
2.27052
2.26803
2.26555
2.26307
2.2606
2.25813
2.25567
2.25323
2.25078
2.24835
2.24593
2.24351
2.24111
2.23871
2.23632
2.23394
2.23157
2.22922
2.22687
2.22453
2.2222
2.21988
2.21757
2.21527
2.21299
2.21071
2.20845
2.20619
2.20395
2.20171
2.19949
2.19728
2.19508
2.19289
2.19071
2.18854
2.18638
2.18423
2.1821
2.17997
2.17785
2.17575
2.17366
2.17157
2.1695
2.16743
2.16538
2.16334
2.1613
2.15928
2.15726
2.15526
2.15326
2.15127
2.1493
2.14733
2.14537
2.14341
2.14147
2.13953
2.1376
2.13568
2.13376
2.13185
2.12995
2.12806
2.12617
2.12428
2.1224
2.12053
2.11866
2.11679
2.11493
2.11308
2.11122
2.10937
2.10752
2.10567
2.10383
2.10198
2.10014
2.0983
2.09645
2.09461
2.09277
2.09092
2.08907
2.08722
2.08537
2.08352
2.08166
2.0798
2.07793
2.07606
2.07419
2.07231
2.07042
2.06853
2.06664
2.06474
2.06283
2.06092
2.059
2.05707
2.05514
2.0532
2.05125
2.04929
2.04733
2.04536
2.04339
2.0414
2.03941
2.03741
2.03541
2.03339
2.03137
2.02934
2.0273
2.02525
2.0232
2.02113
2.01906
2.01698
2.0149
2.0128
2.0107
2.00858
2.00646
2.00433
2.0022
2.00005
1.9979
1.99573
1.99356
1.99138
1.9892
1.987
1.98479
1.98258
1.98036
1.97813
1.97589
1.97364
1.97138
1.96912
1.96684
1.96456
1.96227
1.95997
1.95766
1.95534
1.95301
1.95067
1.94833
1.94597
1.94361
1.94123
1.93885
1.93646
1.93406
1.93165
1.92923
1.9268
1.92436
1.92192
1.91946
1.91699
1.91452
1.91203
1.90954
1.90703
1.90452
1.902
1.89946
1.89692
1.89437
1.8918
1.88923
1.88665
1.88406
1.88145
1.87884
1.87622
1.87359
1.87094
1.86829
1.86563
1.86295
1.86027
1.85758
1.85487
1.85216
1.84943
1.84669
1.84395
1.84119
1.83842
1.83565
1.83286
1.83006
1.82725
1.82443
1.82159
1.81875
1.8159
1.81303
1.81015
1.80727
1.80437
1.80146
1.79854
1.79561
1.79266
1.78971
1.78674
1.78377
1.78078
1.77778
1.77477
1.77174
1.76871
1.76566
1.7626
1.75953
1.75645
1.75336
1.75025
1.74713
1.744
1.74086
1.73771
1.73454
1.73136
1.72817
1.72497
1.72176
1.71853
1.71529
1.71204
1.70877
1.70549
1.7022
1.6989
1.69559
1.69226
1.68892
1.68556
1.6822
1.67882
1.67542
1.67202
1.6686
1.66517
1.66172
1.65826
1.65479
1.6513
1.64781
1.64429
1.64077
1.63723
1.63368
1.63011
1.62653
1.62293
1.61933
1.6157
1.61207
1.60842
1.60475
1.60108
1.59738
1.59368
1.58996
1.58622
1.58247
1.57871
1.57493
1.57114
1.56733
1.56351
1.55967
1.55582
1.55195
1.54807
1.54418
1.54026
1.53634
1.5324
1.52844
1.52447
1.52048
1.51648
1.51246
1.50843
1.50438
1.50031
1.49623
1.49214
1.48802
1.4839
1.47975
1.47559
1.47142
1.46723
1.46302
1.4588
1.45456
1.4503
1.44603
1.44174
1.43743
1.43311
1.42877
1.42441
1.42004
1.41565
1.41125
1.40682
1.40238
1.39793
1.39345
1.38896
1.38445
1.37992
1.37538
1.37082
1.36624
1.36164
1.35703
1.3524
1.34775
1.34308
1.33839
1.33369
1.32897
1.32423
1.31947
1.31469
1.3099
1.30508
1.30025
1.2954
1.29053
1.28564
1.28074
1.27581
1.27087
1.2659
1.26092
1.25592
1.2509
1.24585
1.24079
1.23571
1.23062
1.2255
1.22036
1.2152
1.21002
1.20482
1.1996
1.19437
1.18911
1.18383
1.17853
1.17321
1.16787
1.16251
1.15713
1.15173
1.1463
1.14086
1.1354
1.12991
1.1244
1.11888
1.11333
1.10776
1.10216
1.09655
1.09092
1.08526
1.07958
1.07388
1.06816
1.06241
1.05665
1.05086
1.04505
1.03921
1.03336
1.02748
1.02158
1.01565
1.00971
1.00374
0.997743
0.991728
0.985689
0.979627
0.973541
0.967432
0.9613
0.955144
0.948964
0.94276
0.936533
0.930281
0.924006
0.917706
0.911382
0.905034
0.898661
0.892264
0.885842
0.879395
0.872924
0.866427
0.859906
0.853359
0.846787
0.84019
0.833568
0.82692
0.820246
0.813547
0.806822
0.800071
0.793294
0.78649
0.779661
0.772805
0.765923
0.759015
0.75208
0.745118
0.738129
0.731114
0.724071
0.717001
0.709904
0.70278
0.695628
0.688449
0.681242
0.674008
0.666745
0.659455
0.652136
0.644789
0.637414
0.630011
0.622579
0.615118
0.607629
0.600111
0.592563
0.584987
0.577382
0.569747
0.562083
0.55439
0.546666
0.538913
0.531131
0.523318
0.515475
0.507602
0.499698
0.491765
0.4838
0.475805
0.467779
0.459722
0.451635
0.443516
0.435365
0.427184
0.418971
0.410726
0.402449
0.394141
0.385801
0.377428
0.369023
0.360586
0.352117
0.343614
0.335079
0.326511
0.317911
0.309277
0.300609
0.291909
0.283175
0.274407
0.265605
0.25677
0.2479
0.238997
0.230059
0.221087
0.21208
0.203038
0.193962
0.18485
0.175704
0.166522
0.157305
0.148053
0.138764
0.129441
0.120081
0.110685
0.101253
0.0917843
0.0822794
0.0727379
0.0631597
0.0535446
0.0438924
0.0342031
0.0244765
0.0147123
0.00491034
2.40904
2.40909
2.40905
2.40892
2.40871
2.4084
2.40802
2.40755
2.40699
2.40634
2.40562