/*--------------------------------*- C++ -*----------------------------------*\
  =========                 |
  \\      /  F ield         | OpenFOAM: The Open Source CFD Toolbox
   \\    /   O peration     | Website:  https://openfoam.org
    \\  /    A nd           | Version:  7
     \\/     M anipulation  |
\*---------------------------------------------------------------------------*/
FoamFile
{
    version     2.0;
    format      ascii;
    class       surfaceScalarField;
    location    "1";
    object      phi;
}
// * * * * * * * * * * * * * * * * * * * * * * * * * * * * * * * * * * * * * //

dimensions      [0 3 -1 0 0 0 0];

internalField   nonuniform List<scalar> 
95320
(
0.00250152
-7.08953e-08
1.41684e-14
0.00250174
-2.14229e-07
3.82789e-14
0.0025021
-3.5932e-07
6.201e-14
0.0025026
-5.05879e-07
9.07097e-14
0.00250325
-6.53702e-07
1.14977e-13
0.00250406
-8.02583e-07
1.35661e-13
0.00250501
-9.52309e-07
1.55258e-13
0.00250611
-1.10266e-06
1.7223e-13
0.00250737
-1.25342e-06
1.82879e-13
0.00250877
-1.40435e-06
1.88847e-13
0.00251033
-1.55524e-06
1.9087e-13
0.00251203
-1.70586e-06
1.88107e-13
0.00251389
-1.85598e-06
1.81293e-13
0.00251589
-2.00537e-06
1.7338e-13
0.00251805
-2.15381e-06
1.66642e-13
0.00252035
-2.30109e-06
1.617e-13
0.00252279
-2.44699e-06
1.58712e-13
0.00252539
-2.5913e-06
1.57808e-13
0.00252812
-2.73381e-06
1.5878e-13
0.00253099
-2.87434e-06
1.6188e-13
0.00253401
-3.01268e-06
1.68367e-13
0.00253716
-3.14867e-06
1.79374e-13
0.00254044
-3.28213e-06
1.94932e-13
0.00254385
-3.4129e-06
2.1384e-13
0.00254739
-3.54084e-06
2.33902e-13
0.00255106
-3.66579e-06
2.52498e-13
0.00255484
-3.78763e-06
2.67705e-13
0.00255875
-3.90624e-06
2.7887e-13
0.00256277
-4.02151e-06
2.86361e-13
0.00256691
-4.13335e-06
2.9047e-13
0.00257115
-4.24168e-06
2.90726e-13
0.00257549
-4.34642e-06
2.8626e-13
0.00257994
-4.4475e-06
2.76976e-13
0.00258449
-4.54489e-06
2.64579e-13
0.00258912
-4.63853e-06
2.52171e-13
0.00259385
-4.7284e-06
2.42372e-13
0.00259867
-4.81448e-06
2.36811e-13
0.00260356
-4.89676e-06
2.3603e-13
0.00260854
-4.97524e-06
2.39481e-13
0.00261359
-5.04992e-06
2.4645e-13
0.00261871
-5.12083e-06
2.56267e-13
0.0026239
-5.18799e-06
2.67802e-13
0.00262915
-5.25143e-06
2.80398e-13
0.00263446
-5.3112e-06
2.93639e-13
0.00263983
-5.36733e-06
3.05514e-13
0.00264525
-5.41988e-06
3.1387e-13
0.00265072
-5.4689e-06
3.19209e-13
0.00265623
-5.51446e-06
3.2361e-13
0.00266179
-5.55663e-06
3.28624e-13
0.00266738
-5.59546e-06
3.35227e-13
0.00267301
-5.63104e-06
3.43852e-13
0.00267868
-5.66344e-06
3.54174e-13
0.00268437
-5.69274e-06
3.65611e-13
0.00269009
-5.71902e-06
3.77564e-13
0.00269583
-5.74235e-06
3.89381e-13
0.00270159
-5.76282e-06
4.00929e-13
0.00270738
-5.78052e-06
4.12538e-13
0.00271317
-5.79552e-06
4.23772e-13
0.00271898
-5.80791e-06
4.33121e-13
0.0027248
-5.81777e-06
4.39316e-13
0.00273062
-5.82518e-06
4.42062e-13
0.00273645
-5.83023e-06
4.41457e-13
0.00274229
-5.83299e-06
4.37766e-13
0.00274812
-5.83354e-06
4.31837e-13
0.00275395
-5.83196e-06
4.2473e-13
0.00275978
-5.82833e-06
4.16675e-13
0.0027656
-5.82272e-06
4.06935e-13
0.00277142
-5.81519e-06
3.94752e-13
0.00277722
-5.80583e-06
3.80065e-13
0.00278302
-5.7947e-06
3.63449e-13
0.0027888
-5.78187e-06
3.45743e-13
0.00279457
-5.76739e-06
3.2762e-13
0.00280032
-5.75135e-06
3.09062e-13
0.00280605
-5.73378e-06
2.89228e-13
0.00281177
-5.71477e-06
2.67239e-13
0.00281746
-5.69436e-06
2.43294e-13
0.00282313
-5.67261e-06
2.1895e-13
0.00282878
-5.64957e-06
1.9633e-13
0.00283441
-5.62531e-06
1.77103e-13
0.00284001
-5.59987e-06
1.61956e-13
0.00284558
-5.57331e-06
1.50592e-13
0.00285113
-5.54568e-06
1.4201e-13
0.00285664
-5.51703e-06
1.34988e-13
0.00286213
-5.48741e-06
1.28543e-13
0.00286759
-5.45688e-06
1.22095e-13
0.00287301
-5.42548e-06
1.1518e-13
0.00287841
-5.39326e-06
1.07021e-13
0.00288377
-5.36028e-06
9.64682e-14
0.00288909
-5.32659e-06
8.24507e-14
0.00289439
-5.29225e-06
6.47991e-14
0.00289964
-5.25729e-06
4.45658e-14
0.00290487
-5.22178e-06
2.35834e-14
0.00291005
-5.18576e-06
3.10377e-15
0.0029152
-5.14929e-06
-1.56538e-14
0.00292031
-5.11242e-06
-3.25576e-14
0.00292539
-5.07519e-06
-4.83678e-14
0.00293043
-5.03766e-06
-6.41351e-14
0.00293543
-4.99987e-06
-8.08733e-14
0.00294039
-4.96186e-06
-9.9391e-14
0.00294531
-4.92368e-06
-1.20363e-13
0.0029502
-4.88536e-06
-1.44406e-13
0.00295504
-4.84692e-06
-1.72032e-13
0.00295985
-4.8084e-06
-2.03496e-13
0.00296462
-4.76981e-06
-2.38623e-13
0.00296935
-4.73115e-06
-2.76814e-13
0.00297405
-4.69244e-06
-3.17276e-13
0.0029787
-4.65367e-06
-3.59357e-13
0.00298331
-4.6148e-06
-4.02916e-13
0.00298789
-4.57583e-06
-4.48325e-13
0.00299243
-4.53669e-06
-4.96291e-13
0.00299692
-4.49734e-06
-5.47596e-13
0.00300138
-4.45771e-06
-6.02857e-13
0.0030058
-4.41772e-06
-6.62348e-13
0.00301018
-4.37727e-06
-7.25927e-13
0.00301451
-4.33626e-06
-7.93002e-13
0.00301881
-4.29456e-06
-8.62542e-13
0.00302306
-4.25206e-06
-9.33208e-13
0.00302727
-4.20859e-06
-1.00362e-12
0.00303143
-4.16401e-06
-1.0727e-12
0.00303555
-4.11817e-06
-1.14002e-12
0.00303962
-4.07088e-06
-1.20596e-12
0.00304364
-4.02199e-06
-1.27161e-12
0.00304761
-3.97131e-06
-1.33842e-12
0.00305153
-3.91868e-06
-1.40777e-12
0.0030554
-3.86393e-06
-1.48051e-12
0.0030592
-3.8069e-06
-1.55655e-12
0.00306295
-3.74743e-06
-1.6347e-12
0.00306664
-3.68539e-06
-1.71281e-12
0.00307026
-3.62065e-06
-1.78815e-12
0.00307381
-3.55311e-06
-1.85794e-12
0.00307729
-3.48268e-06
-1.91982e-12
0.0030807
-3.40931e-06
-1.97218e-12
0.00308404
-3.33297e-06
-2.01424e-12
0.00308729
-3.25366e-06
-2.04604e-12
0.00309046
-3.1714e-06
-2.06828e-12
0.00309355
-3.08625e-06
-2.08207e-12
0.00309654
-2.99832e-06
-2.08873e-12
0.00309945
-2.90772e-06
-2.08949e-12
0.00310227
-2.81462e-06
-2.08534e-12
0.00310499
-2.7192e-06
-2.07679e-12
0.00310761
-2.62169e-06
-2.06363e-12
0.00311013
-2.52235e-06
-2.04469e-12
0.00311255
-2.42144e-06
-2.01793e-12
0.00311487
-2.31928e-06
-1.98071e-12
0.00311709
-2.21617e-06
-1.93049e-12
0.0031192
-2.11247e-06
-1.86548e-12
0.00312121
-2.00852e-06
-1.7852e-12
0.00312311
-1.90467e-06
-1.69057e-12
0.00312491
-1.8013e-06
-1.58366e-12
0.00312661
-1.69877e-06
-1.46725e-12
0.00312821
-1.59744e-06
-1.3443e-12
0.00312971
-1.49765e-06
-1.21746e-12
0.00313111
-1.39975e-06
-1.08867e-12
0.00313241
-1.30405e-06
-9.59264e-13
0.00313362
-1.21087e-06
-8.30284e-13
0.00313474
-1.12046e-06
-7.02769e-13
0.00313578
-1.0331e-06
-5.76157e-13
0.00313673
-9.48994e-07
-4.50252e-13
0.00313759
-8.68346e-07
-3.24894e-13
0.00313839
-7.91317e-07
-1.98708e-13
0.0031391
-7.18038e-07
-7.3123e-14
0.00313975
-6.48609e-07
5.07531e-14
0.00314033
-5.83097e-07
1.7389e-13
0.00314086
-5.21539e-07
2.92951e-13
0.00314132
-4.63941e-07
4.04749e-13
0.00314173
-4.10282e-07
5.06354e-13
0.00314209
-3.60512e-07
5.9648e-13
0.00314241
-3.14559e-07
6.75611e-13
0.00314268
-2.72328e-07
7.44947e-13
0.00314291
-2.33702e-07
8.05636e-13
0.00314311
-1.9855e-07
8.59284e-13
0.00314328
-1.66724e-07
9.07837e-13
0.00314341
-1.38065e-07
9.51884e-13
0.00314353
-1.12405e-07
9.91292e-13
0.00314362
-8.95681e-08
1.02757e-12
0.00314369
-6.93745e-08
1.06288e-12
0.00314374
-5.1642e-08
1.098e-12
0.00314377
-3.61879e-08
1.13209e-12
0.0031438
-2.28317e-08
1.16299e-12
0.00314381
-1.13961e-08
1.18992e-12
0.00314381
-1.70823e-09
1.21217e-12
0.0031438
6.39811e-09
1.22813e-12
0.00314379
1.30824e-08
1.23648e-12
0.00314377
1.84961e-08
1.23586e-12
0.00314375
2.27822e-08
1.22608e-12
0.00314372
2.60744e-08
1.20898e-12
0.00314369
2.84976e-08
1.18731e-12
0.00314366
3.01667e-08
1.16348e-12
0.00314363
3.11876e-08
1.13974e-12
0.0031436
3.16569e-08
1.11765e-12
0.00314357
3.16619e-08
1.09743e-12
0.00314354
3.12816e-08
1.07912e-12
0.00314351
3.05862e-08
1.06304e-12
0.00314348
2.96384e-08
1.04947e-12
0.00314345
2.84933e-08
1.0376e-12
0.00314342
2.71991e-08
1.02507e-12
0.0031434
2.57976e-08
1.00896e-12
0.00314337
2.43249e-08
9.87291e-13
0.00314335
2.28115e-08
9.5898e-13
0.00314333
2.12833e-08
9.23775e-13
0.00314331
1.97618e-08
8.82178e-13
0.00314329
1.82645e-08
8.35513e-13
0.00314327
1.68055e-08
7.86057e-13
0.00314326
1.53962e-08
7.37365e-13
0.00314324
1.4045e-08
6.94362e-13
0.00314323
1.27581e-08
6.61145e-13
0.00314322
1.15399e-08
6.39974e-13
0.00314321
1.0393e-08
6.31241e-13
0.0031432
9.31863e-09
6.33309e-13
0.00314319
8.31697e-09
6.42487e-13
0.00314318
7.38714e-09
6.53931e-13
0.00314318
6.52751e-09
6.62693e-13
0.00314317
5.73589e-09
6.6438e-13
0.00314317
5.00961e-09
6.5656e-13
0.00314316
4.34567e-09
6.38661e-13
0.00314316
3.74082e-09
6.12087e-13
0.00314316
3.19168e-09
5.79963e-13
0.00314315
2.6948e-09
5.46347e-13
0.00314315
2.2467e-09
5.15624e-13
0.00314315
1.84393e-09
4.91572e-13
0.00314315
1.48312e-09
4.75853e-13
0.00314315
1.161e-09
4.68345e-13
0.00314315
8.74423e-10
4.67519e-13
0.00314315
6.20374e-10
4.71032e-13
0.00314314
3.96e-10
4.75853e-13
0.00314314
1.98613e-10
4.78956e-13
0.00314314
2.56776e-11
4.7818e-13
0.00314314
-1.25149e-10
4.72333e-13
0.00314314
-2.56055e-10
4.61296e-13
0.00314315
-3.69066e-10
4.45891e-13
0.00314315
-4.66047e-10
4.27746e-13
0.00314315
-5.48712e-10
4.09091e-13
0.00314315
-6.1863e-10
3.92463e-13
0.00314315
-6.77235e-10
3.79337e-13
0.00314315
-7.25831e-10
3.70245e-13
0.00314315
-7.65602e-10
3.64834e-13
0.00314315
-7.97621e-10
3.62101e-13
0.00314315
-8.22853e-10
3.60735e-13
0.00314315
-8.42167e-10
3.59366e-13
0.00314315
-8.56341e-10
3.56693e-13
0.00314315
-8.66068e-10
3.51641e-13
0.00314315
-8.71963e-10
3.43609e-13
0.00314315
-8.74575e-10
3.32661e-13
0.00314316
-8.74385e-10
3.19434e-13
0.00314316
-8.71821e-10
3.04866e-13
0.00314316
-8.67258e-10
2.89841e-13
0.00314316
-8.61026e-10
2.74937e-13
0.00314316
-8.53414e-10
2.6035e-13
0.00314316
-8.44677e-10
2.45968e-13
0.00314316
-8.35033e-10
2.31502e-13
0.00314316
-8.24673e-10
2.16634e-13
0.00314316
-8.13759e-10
2.01488e-13
0.00314316
-8.02427e-10
1.86431e-13
0.00314316
-7.90795e-10
1.71789e-13
0.00314317
-7.78956e-10
1.57618e-13
0.00314317
-7.66991e-10
1.43685e-13
0.00314317
-7.54966e-10
1.29553e-13
0.00314317
-7.42934e-10
1.14246e-13
0.00314317
-7.30941e-10
9.74692e-14
0.00314317
-7.19025e-10
7.97584e-14
0.00314317
-7.07218e-10
6.1641e-14
0.00314317
-6.95546e-10
4.38682e-14
0.00314317
-6.84033e-10
2.67231e-14
0.00314317
-6.72694e-10
8.81273e-15
0.00314317
-6.61546e-10
-3.91922e-15
0.00314317
-6.50595e-10
-1.49334e-14
0.00314317
-6.39847e-10
-2.35846e-14
0.00314317
-6.29304e-10
-3.04687e-14
0.00314317
-6.18962e-10
-3.66632e-14
0.00314318
-6.08816e-10
-4.36129e-14
0.00314318
-5.98861e-10
-5.29352e-14
0.00314318
-5.89086e-10
-6.62682e-14
0.00314318
-5.79483e-10
-8.49587e-14
0.00314318
-5.70043e-10
-1.09416e-13
0.00314318
-5.60758e-10
-1.37668e-13
0.00314318
-5.51619e-10
-1.66851e-13
0.00314318
-5.42623e-10
-1.94654e-13
0.00314318
-5.33765e-10
-2.18468e-13
0.00314318
-5.25042e-10
-2.35885e-13
0.00314318
-5.16456e-10
-2.45359e-13
0.00314318
-5.08005e-10
-2.46624e-13
0.00314318
-4.99693e-10
-2.40754e-13
0.00314318
-4.91522e-10
-2.30013e-13
0.00314318
-4.83491e-10
-2.1745e-13
0.00314318
-4.75602e-10
-2.06328e-13
0.00314318
-4.67851e-10
-1.99819e-13
0.00314318
-4.60233e-10
-2.00067e-13
0.00314318
-4.52743e-10
-2.07612e-13
0.00314319
-4.45372e-10
-2.2201e-13
0.00314319
-4.38111e-10
-2.41811e-13
0.00314319
-4.30951e-10
-2.64706e-13
0.00314319
-4.23885e-10
-2.88001e-13
0.00314319
-4.16904e-10
-3.089e-13
0.00314319
-4.10002e-10
-3.25049e-13
0.00314319
-4.03177e-10
-3.34645e-13
0.00314319
-3.96427e-10
-3.36827e-13
0.00314319
-3.89754e-10
-3.31977e-13
0.00314319
-3.83162e-10
-3.21463e-13
0.00314319
-3.76655e-10
-3.07241e-13
0.00314319
-3.7024e-10
-2.92078e-13
0.00314319
-3.6392e-10
-2.78971e-13
0.00314319
-3.57699e-10
-2.70362e-13
0.00314319
-3.51576e-10
-2.67319e-13
0.00314319
-3.45548e-10
-2.69351e-13
0.00314319
-3.3961e-10
-2.74854e-13
0.00314319
-3.33756e-10
-2.81505e-13
0.00314319
-3.27978e-10
-2.8673e-13
0.00314319
-3.22271e-10
-2.88655e-13
0.00314319
-3.1663e-10
-2.86056e-13
0.00314319
-3.11054e-10
-2.78826e-13
0.00314319
-3.05542e-10
-2.67238e-13
0.00314319
-3.00094e-10
-2.51601e-13
0.00314319
-2.94712e-10
-2.32533e-13
0.00314319
-2.89396e-10
-2.11125e-13
0.00314319
-2.84149e-10
-1.88805e-13
0.00314319
-2.7897e-10
-1.67226e-13
0.00314319
-2.73864e-10
-1.4868e-13
0.0031432
-2.68832e-10
-1.35505e-13
0.0031432
-2.63874e-10
-1.29071e-13
0.0031432
-2.58991e-10
-1.29479e-13
0.0031432
-2.54178e-10
-1.36161e-13
0.0031432
-2.49433e-10
-1.46684e-13
0.0031432
-2.4475e-10
-1.58168e-13
0.0031432
-2.40128e-10
-1.69813e-13
0.0031432
-2.35565e-10
-1.80971e-13
0.0031432
-2.31059e-10
-1.90771e-13
0.0031432
-2.26609e-10
-1.97047e-13
0.0031432
-2.22217e-10
-1.97267e-13
0.0031432
-2.1788e-10
-1.8898e-13
0.0031432
-2.13598e-10
-1.71825e-13
0.0031432
-2.09375e-10
-1.47623e-13
0.0031432
-2.05215e-10
-1.20187e-13
0.0031432
-2.01123e-10
-9.3132e-14
0.0031432
-1.97105e-10
-6.85917e-14
0.0031432
-1.93161e-10
-4.68388e-14
0.0031432
-1.89291e-10
-2.74488e-14
0.0031432
-1.85493e-10
-9.57428e-15
0.0031432
-1.81763e-10
4.48889e-15
0.0031432
-1.78102e-10
1.12073e-14
0.0031432
-1.74507e-10
1.2385e-14
0.0031432
-1.70975e-10
7.98726e-15
0.0031432
-1.675e-10
3.2053e-15
0.0031432
-1.64077e-10
-1.08755e-15
0.0031432
-1.60698e-10
-4.96775e-15
0.0031432
-1.57363e-10
-8.22049e-15
0.0031432
-1.54076e-10
-1.07373e-14
0.0031432
-1.50836e-10
-1.3064e-14
0.0031432
-1.47635e-10
-1.52223e-14
0.0031432
-1.44476e-10
-1.31168e-14
0.0031432
-1.41361e-10
-6.4302e-15
0.0031432
-1.38291e-10
1.40126e-15
0.0031432
-1.35267e-10
8.2009e-15
0.0031432
-1.32295e-10
1.53172e-14
0.0031432
-1.29378e-10
2.38945e-14
0.0031432
-1.26511e-10
3.20014e-14
0.0031432
-1.23691e-10
3.79376e-14
0.0031432
-1.20929e-10
4.22329e-14
0.0031432
-1.18225e-10
4.23816e-14
0.0031432
-1.15568e-10
3.89927e-14
0.0031432
-1.12952e-10
3.79622e-14
0.0031432
-1.10381e-10
4.14654e-14
0.0031432
-1.07855e-10
4.1057e-14
0.0031432
-1.05369e-10
3.11935e-14
0.0031432
-1.02927e-10
2.00309e-14
0.0031432
-1.0053e-10
1.38364e-14
0.0031432
-9.81619e-11
1.18665e-14
0.0031432
-9.58153e-11
1.78108e-14
0.0031432
-9.35003e-11
3.19485e-14
0.0031432
-9.12316e-11
4.58275e-14
0.0031432
-8.90075e-11
5.14698e-14
0.0031432
-8.68205e-11
5.44982e-14
0.0031432
-8.46754e-11
6.43074e-14
0.0031432
-8.25771e-11
7.43419e-14
0.0031432
-8.05239e-11
7.36167e-14
0.0031432
-7.85157e-11
6.48312e-14
0.0031432
-7.65541e-11
5.86486e-14
0.0031432
-7.46363e-11
5.45243e-14
0.0031432
-7.27527e-11
4.49963e-14
0.0031432
-7.08968e-11
3.63549e-14
0.0031432
-6.90672e-11
3.68568e-14
0.0031432
-6.7268e-11
4.25675e-14
0.0031432
-6.55019e-11
4.07976e-14
0.0031432
-6.3765e-11
3.18529e-14
0.0031432
-6.20573e-11
3.18437e-14
0.0031432
-6.03802e-11
3.88552e-14
0.0031432
-5.87316e-11
3.88714e-14
0.00314321
-5.7107e-11
3.05529e-14
0.00314321
-5.55107e-11
2.79719e-14
0.00314321
-5.39545e-11
3.28067e-14
0.00314321
-5.24361e-11
2.84814e-14
0.00314321
-5.09414e-11
1.55367e-14
0.00314321
-4.94658e-11
1.32334e-14
0.00314321
-4.80248e-11
2.67513e-14
0.00314321
-4.66293e-11
2.99881e-14
0.00314321
-4.52707e-11
9.40476e-15
0.00314321
-4.3943e-11
-5.61139e-15
0.00314321
-4.26477e-11
-1.24879e-15
0.00314321
-4.13846e-11
1.21756e-14
0.00314321
-4.01393e-11
1.16203e-14
0.00314321
-3.89088e-11
1.00278e-14
0.00314321
-3.77012e-11
1.83738e-14
0.00314321
-3.65215e-11
2.96802e-14
0.00314321
-3.53649e-11
2.5472e-14
0.00314321
-3.42249e-11
1.88503e-14
0.00314321
-3.30984e-11
2.37402e-14
0.00314321
-3.19849e-11
3.23233e-14
0.00314321
-3.08844e-11
3.25192e-14
0.00314321
-2.98003e-11
2.27747e-14
0.00314321
-2.87457e-11
9.80942e-15
0.00314321
-2.7722e-11
2.74777e-15
0.00314321
-2.67052e-11
4.78592e-16
0.00314321
-2.56829e-11
6.17499e-15
0.00314321
-2.46769e-11
1.81017e-14
0.00314321
-2.37059e-11
2.13749e-14
0.00314321
-2.27692e-11
2.86421e-15
0.00314321
-2.18679e-11
-1.59547e-14
0.00314321
-2.09822e-11
-8.45769e-15
0.00314321
-2.00829e-11
1.22514e-14
0.00314321
-1.91987e-11
2.43143e-14
0.00314321
-1.83752e-11
2.45957e-14
0.00314321
-1.75878e-11
9.16463e-15
0.00314321
-1.68059e-11
-1.4916e-14
0.00314321
-1.60575e-11
-2.00761e-14
0.00314321
-1.53376e-11
-4.85125e-15
0.00314321
-1.46019e-11
-3.20692e-15
0.00314321
-1.38785e-11
-2.32054e-14
0.00314321
-1.32237e-11
-2.84135e-14
0.00314321
-1.25911e-11
-1.8153e-14
0.00314321
-1.19142e-11
-3.2051e-14
0.00314321
-1.12649e-11
-4.87994e-14
0.00314321
-1.07008e-11
-3.58208e-14
0.00314321
-1.01185e-11
-3.4701e-14
0.00314321
-9.48002e-12
-7.14474e-14
0.00314321
-8.91014e-12
-6.5208e-14
0.00314321
-8.398e-12
-1.87471e-14
0.00314321
-7.8018e-12
-3.58548e-14
0.00314321
-7.20016e-12
-8.67394e-14
0.00314321
-6.73916e-12
-5.36428e-14
0.00314321
-6.27488e-12
-6.73377e-15
0.00314321
-5.68049e-12
-4.46449e-14
0.00314321
-5.1373e-12
-5.14461e-14
0.00314321
-4.729e-12
1.4856e-14
0.00314321
-4.27809e-12
3.28043e-15
0.00314321
-3.7594e-12
-6.9766e-14
0.00314321
-3.31562e-12
-3.01816e-14
0.00314321
-2.91218e-12
3.09393e-14
0.00314321
-2.46438e-12
-1.16855e-14
0.00314321
-2.02159e-12
-5.77891e-14
0.00314321
-1.61496e-12
-2.49556e-14
0.00314321
-1.20986e-12
-1.90986e-14
0.00314321
-7.96454e-13
-4.37838e-14
0.00314321
-3.64352e-13
-2.46193e-14
0.00314321
5.64769e-14
-2.02639e-14
0.00314321
3.93766e-13
-3.47808e-14
0.00314321
6.83741e-13
-7.35266e-15
0.00314321
1.14629e-12
-2.06166e-14
0.00314321
1.59391e-12
-5.98741e-14
0.00314321
1.75252e-12
-3.86687e-15
0.00314321
1.96914e-12
2.27988e-14
0.00314321
2.47314e-12
-7.61008e-14
0.00314321
2.80337e-12
-4.70705e-14
0.00314321
2.86985e-12
7.907e-14
0.00314321
3.18323e-12
1.73614e-15
0.00314321
3.63159e-12
-1.2306e-13
0.00314321
3.76683e-12
1.62981e-15
0.00314321
3.91845e-12
1.0508e-13
0.00314321
4.33243e-12
-1.45122e-14
0.00314321
4.5862e-12
-5.76007e-14
0.00314321
4.65626e-12
1.10531e-14
0.00314321
4.89798e-12
1.76299e-14
0.00314321
5.22147e-12
-2.43735e-14
0.00314321
5.38499e-12
-1.67003e-14
0.00314321
5.53398e-12
6.26924e-15
0.00314321
5.74664e-12
-7.8264e-15
0.00314321
5.90808e-12
-4.42418e-14
0.00314321
6.07285e-12
-1.24525e-14
0.00314321
6.30596e-12
1.55649e-14
0.00314321
6.52003e-12
-3.74847e-14
0.00314321
6.63259e-12
-3.91048e-14
0.00314321
6.77142e-12
7.37406e-15
0.00314321
6.99726e-12
-7.53811e-14
0.00314321
7.10735e-12
-1.17298e-13
0.00314321
7.1396e-12
-3.27506e-14
0.00314321
7.22734e-12
-4.35378e-14
0.00314321
7.38352e-12
-5.42372e-14
0.00314321
7.54267e-12
1.16455e-14
0.00314321
7.61696e-12
6.90676e-15
0.00314321
7.71977e-12
-2.69675e-15
0.00314321
7.84359e-12
3.53476e-14
0.00314321
7.92977e-12
-7.03771e-15
0.00314321
8.04534e-12
-2.67626e-14
0.00314321
8.21316e-12
2.324e-14
0.00314321
8.24745e-12
3.10245e-14
0.00314321
8.25628e-12
-5.65824e-15
0.00314321
8.42617e-12
-4.90441e-14
0.00314321
8.53885e-12
-1.53545e-14
0.00314321
8.51862e-12
3.31885e-14
0.00314321
8.45689e-12
-3.83613e-15
0.00314321
8.62041e-12
1.00445e-15
0.00314321
8.82734e-12
1.39241e-14
0.00314321
8.74192e-12
5.86425e-14
0.00314321
8.76439e-12
1.14144e-13
0.00314321
9.06132e-12
-2.54581e-14
0.00314321
9.06873e-12
-2.78879e-14
0.00314321
9.05929e-12
1.02963e-13
0.00314321
9.30392e-12
2.21307e-14
0.00314321
9.30016e-12
-1.2262e-14
0.00314321
9.27919e-12
-3.44548e-14
0.00314321
9.3413e-12
4.62167e-15
0.00314321
9.50378e-12
2.74246e-14
0.00314321
9.62705e-12
-1.37168e-13
0.00314321
9.46885e-12
3.6404e-14
0.00314321
9.46922e-12
7.46701e-14
0.00314321
9.72446e-12
-1.9758e-13
0.00314321
9.68613e-12
-9.71757e-15
0.00314321
9.51461e-12
5.63621e-14
0.00314321
9.52648e-12
-4.18267e-14
0.00314321
9.55132e-12
6.87892e-14
0.00314321
9.66605e-12
-4.70819e-14
0.00314321
9.55024e-12
3.38435e-14
0.00314321
9.39348e-12
1.64453e-13
0.00314321
9.46175e-12
-2.9163e-14
0.00314321
9.5603e-12
-8.04566e-14
0.00314321
9.52191e-12
-1.29165e-14
0.00314321
9.34386e-12
1.12887e-13
0.00314321
9.46974e-12
2.72042e-14
0.00314321
9.6542e-12
-7.677e-14
0.00314321
9.2667e-12
1.57398e-13
0.00314321
9.40777e-12
7.84738e-16
0.00314321
9.42521e-12
-4.86421e-14
0.00314321
9.20208e-12
1.18972e-13
0.00314321
9.53086e-12
-1.17052e-13
0.00314321
9.21514e-12
1.03803e-13
0.00314321
9.44905e-12
2.7401e-17
0.00314321
9.44283e-12
-1.07041e-13
0.00314321
9.24587e-12
4.06934e-14
0.00314321
9.56633e-12
-1.75702e-13
0.00314321
9.10298e-12
1.33512e-13
0.00314321
9.43469e-12
-4.53511e-14
0.00314321
9.51436e-12
-8.33967e-14
0.00314321
9.1462e-12
1.14581e-13
0.00314321
9.61083e-12
-1.79014e-13
0.00314321
9.25851e-12
5.51265e-14
0.00314321
9.38453e-12
-2.0536e-13
0.00314321
9.48148e-12
-3.92665e-14
0.00314321
9.45465e-12
1.54896e-14
0.00314321
9.36213e-12
-4.27274e-14
0.00314321
9.4288e-12
4.25184e-14
0.00314321
9.44908e-12
-7.33969e-14
0.00314321
9.47422e-12
-9.60124e-14
0.00314321
9.34689e-12
5.861e-15
0.00314321
9.36139e-12
6.46234e-15
0.00314321
9.36916e-12
-1.10617e-13
0.00314321
9.24104e-12
8.50737e-14
0.00314321
9.35752e-12
-3.51405e-14
0.00314321
9.01199e-12
1.31357e-13
0.00314321
9.19415e-12
2.80964e-15
0.00314321
9.00281e-12
4.1545e-14
0.00314321
8.9886e-12
1.6216e-14
0.00314321
8.7003e-12
1.75775e-13
0.00314321
8.97663e-12
-1.37288e-13
0.00314321
8.50498e-12
2.34348e-13
0.00314321
8.85481e-12
-9.98408e-14
0.00314321
8.73842e-12
1.01053e-13
0.00314321
8.498e-12
1.00891e-13
0.00314321
8.91158e-12
-1.70589e-13
0.00314321
8.51264e-12
1.56914e-13
0.00314321
8.85303e-12
-2.13328e-13
0.00314321
8.63536e-12
1.42612e-13
0.00314321
8.70389e-12
-8.88833e-14
0.00314321
8.60826e-12
3.38979e-14
0.00314321
8.5393e-12
-1.9339e-14
0.00314321
8.28116e-12
-7.17643e-16
0.00314321
8.43116e-12
-1.19728e-13
0.00314321
7.91658e-12
2.00706e-13
0.00314321
8.21528e-12
-1.12075e-13
0.00314321
7.74447e-12
3.12165e-13
0.00314321
8.00869e-12
-1.46556e-13
0.00314321
7.71633e-12
2.08214e-13
0.00314321
7.70235e-12
-6.55907e-14
0.00314321
7.81159e-12
1.00425e-13
0.00314321
7.58659e-12
-5.27959e-14
0.00314321
8.09902e-12
-3.29636e-14
0.00314321
7.30563e-12
-5.73517e-14
0.00314321
8.23273e-12
2.24465e-14
0.00314321
6.60007e-12
-7.79536e-14
0.00314321
8.41974e-12
4.3278e-14
0.00314321
5.61709e-12
-7.46821e-14
0.00314321
8.10596e-12
1.92551e-13
0.00314321
4.41299e-12
-1.75227e-13
0.00314321
7.35118e-12
2.71435e-13
0.00314321
1.1534e-12
-1.87447e-13
0.00314321
7.71328e-12
5.31878e-15
0.00314321
-6.13415e-12
-1.43856e-13
0.00314321
7.45259e-12
1.41063e-15
0.00314321
-1.36907e-11
-1.98222e-13
0.00314321
7.83816e-12
5.94284e-14
0.00314321
-4.94455e-12
-3.00207e-13
0.00314321
3.22783e-11
-6.77187e-13
1.34289e-10
-3.47388e-13
0.00240039
-1.40451e-07
0.0024006
-4.24372e-07
0.00240095
-7.11769e-07
0.00240145
-1.00207e-06
0.00240209
-1.29485e-06
0.00240288
-1.58971e-06
0.00240381
-1.88621e-06
0.00240489
-2.18391e-06
0.00240612
-2.48235e-06
0.0024075
-2.7811e-06
0.00240902
-3.07969e-06
0.0024107
-3.37766e-06
0.00241252
-3.67457e-06
0.00241448
-3.96995e-06
0.00241659
-4.26337e-06
0.00241884
-4.55438e-06
0.00242124
-4.84256e-06
0.00242377
-5.12749e-06
0.00242645
-5.40875e-06
0.00242926
-5.68597e-06
0.00243221
-5.95877e-06
0.00243529
-6.2268e-06
0.00243849
-6.48971e-06
0.00244183
-6.74719e-06
0.00244528
-6.99895e-06
0.00244886
-7.2447e-06
0.00245256
-7.48421e-06
0.00245637
-7.71723e-06
0.00246029
-7.94357e-06
0.00246432
-8.16303e-06
0.00246846
-8.37547e-06
0.00247269
-8.58074e-06
0.00247702
-8.77872e-06
0.00248145
-8.96933e-06
0.00248596
-9.1525e-06
0.00249056
-9.32816e-06
0.00249524
-9.4963e-06
0.0025
-9.6569e-06
0.00250484
-9.80997e-06
0.00250974
-9.95554e-06
0.00251472
-1.00936e-05
0.00251975
-1.02243e-05
0.00252485
-1.03477e-05
0.00253
-1.04638e-05
0.00253521
-1.05727e-05
0.00254046
-1.06746e-05
0.00254576
-1.07696e-05
0.00255111
-1.08578e-05
0.00255649
-1.09393e-05
0.00256191
-1.10143e-05
0.00256736
-1.10828e-05
0.00257284
-1.11452e-05
0.00257835
-1.12015e-05
0.00258388
-1.12519e-05
0.00258944
-1.12965e-05
0.00259501
-1.13356e-05
0.0026006
-1.13692e-05
0.0026062
-1.13976e-05
0.00261181
-1.14208e-05
0.00261743
-1.14392e-05
0.00262306
-1.14528e-05
0.00262869
-1.14617e-05
0.00263433
-1.14662e-05
0.00263996
-1.14664e-05
0.00264559
-1.14625e-05
0.00265122
-1.14545e-05
0.00265684
-1.14427e-05
0.00266245
-1.14272e-05
0.00266805
-1.14081e-05
0.00267364
-1.13855e-05
0.00267922
-1.13596e-05
0.00268478
-1.13305e-05
0.00269033
-1.12984e-05
0.00269586
-1.12633e-05
0.00270137
-1.12253e-05
0.00270686
-1.11846e-05
0.00271233
-1.11413e-05
0.00271777
-1.10954e-05
0.0027232
-1.10472e-05
0.00272859
-1.09966e-05
0.00273396
-1.09438e-05
0.00273931
-1.08889e-05
0.00274462
-1.0832e-05
0.00274991
-1.07732e-05
0.00275516
-1.07125e-05
0.00276039
-1.06501e-05
0.00276558
-1.05861e-05
0.00277074
-1.05206e-05
0.00277587
-1.04536e-05
0.00278096
-1.03852e-05
0.00278602
-1.03156e-05
0.00279104
-1.02449e-05
0.00279603
-1.01731e-05
0.00280098
-1.01004e-05
0.00280589
-1.00268e-05
0.00281077
-9.95245e-06
0.00281561
-9.87742e-06
0.00282041
-9.80181e-06
0.00282518
-9.72569e-06
0.0028299
-9.64914e-06
0.00283459
-9.57222e-06
0.00283924
-9.49499e-06
0.00284385
-9.4175e-06
0.00284842
-9.33978e-06
0.00285295
-9.26184e-06
0.00285744
-9.1837e-06
0.00286189
-9.10532e-06
0.0028663
-9.02669e-06
0.00287067
-8.94772e-06
0.00287501
-8.86836e-06
0.0028793
-8.78849e-06
0.00288355
-8.70798e-06
0.00288776
-8.62668e-06
0.00289192
-8.54441e-06
0.00289605
-8.46097e-06
0.00290013
-8.37614e-06
0.00290417
-8.28965e-06
0.00290816
-8.20124e-06
0.00291211
-8.11063e-06
0.00291601
-8.01751e-06
0.00291986
-7.92157e-06
0.00292366
-7.82249e-06
0.00292741
-7.71994e-06
0.0029311
-7.6136e-06
0.00293474
-7.50317e-06
0.00293832
-7.38833e-06
0.00294184
-7.26882e-06
0.0029453
-7.14437e-06
0.0029487
-7.01477e-06
0.00295202
-6.87982e-06
0.00295528
-6.73938e-06
0.00295846
-6.59337e-06
0.00296157
-6.44172e-06
0.0029646
-6.28446e-06
0.00296755
-6.12166e-06
0.00297042
-5.95344e-06
0.0029732
-5.78001e-06
0.0029759
-5.60162e-06
0.0029785
-5.41859e-06
0.00298101
-5.23131e-06
0.00298343
-5.04021e-06
0.00298575
-4.84579e-06
0.00298798
-4.64859e-06
0.00299011
-4.4492e-06
0.00299214
-4.24824e-06
0.00299408
-4.04637e-06
0.00299591
-3.84427e-06
0.00299765
-3.64262e-06
0.00299929
-3.44213e-06
0.00300084
-3.24349e-06
0.00300229
-3.04739e-06
0.00300364
-2.8545e-06
0.00300491
-2.66546e-06
0.00300609
-2.48088e-06
0.00300718
-2.30132e-06
0.00300818
-2.12731e-06
0.00300911
-1.95933e-06
0.00300996
-1.79779e-06
0.00301073
-1.64304e-06
0.00301144
-1.49539e-06
0.00301207
-1.35508e-06
0.00301265
-1.22228e-06
0.00301316
-1.09711e-06
0.00301362
-9.79618e-07
0.00301403
-8.69809e-07
0.00301438
-7.67625e-07
0.00301469
-6.7296e-07
0.00301497
-5.85661e-07
0.0030152
-5.05533e-07
0.0030154
-4.32344e-07
0.00301557
-3.65829e-07
0.0030157
-3.05697e-07
0.00301582
-2.51635e-07
0.00301591
-2.03311e-07
0.00301598
-1.60383e-07
0.00301603
-1.225e-07
0.00301607
-8.93085e-08
0.00301609
-6.04544e-08
0.00301611
-3.55883e-08
0.00301611
-1.4368e-08
0.0030161
3.53991e-09
0.00301609
1.84546e-08
0.00301608
3.06824e-08
0.00301605
4.05139e-08
0.00301603
4.82225e-08
0.003016
5.4064e-08
0.00301597
5.82763e-08
0.00301594
6.10787e-08
0.00301591
6.26726e-08
0.00301588
6.32413e-08
0.00301584
6.29506e-08
0.00301581
6.19497e-08
0.00301578
6.03718e-08
0.00301576
5.83347e-08
0.00301573
5.59424e-08
0.0030157
5.32855e-08
0.00301568
5.04424e-08
0.00301565
4.74804e-08
0.00301563
4.44566e-08
0.00301561
4.14191e-08
0.00301559
3.84074e-08
0.00301558
3.54542e-08
0.00301556
3.25852e-08
0.00301555
2.98207e-08
0.00301553
2.7176e-08
0.00301552
2.46622e-08
0.00301551
2.22866e-08
0.0030155
2.00536e-08
0.00301549
1.79647e-08
0.00301548
1.60197e-08
0.00301548
1.42163e-08
0.00301547
1.25508e-08
0.00301547
1.10187e-08
0.00301546
9.61444e-09
0.00301546
8.33187e-09
0.00301545
7.16449e-09
0.00301545
6.10555e-09
0.00301545
5.14816e-09
0.00301545
4.28544e-09
0.00301545
3.51061e-09
0.00301544
2.81702e-09
0.00301544
2.19828e-09
0.00301544
1.64821e-09
0.00301544
1.16096e-09
0.00301544
7.30967e-10
0.00301544
3.53015e-10
0.00301544
2.21754e-11
0.00301544
-2.66093e-10
0.00301544
-5.16039e-10
0.00301544
-7.31583e-10
0.00301544
-9.16335e-10
0.00301544
-1.07361e-09
0.00301544
-1.20644e-09
0.00301544
-1.31759e-09
0.00301544
-1.40958e-09
0.00301545
-1.48468e-09
0.00301545
-1.54495e-09
0.00301545
-1.59225e-09
0.00301545
-1.62823e-09
0.00301545
-1.65441e-09
0.00301545
-1.6721e-09
0.00301545
-1.68249e-09
0.00301545
-1.68665e-09
0.00301545
-1.6855e-09
0.00301545
-1.67987e-09
0.00301545
-1.67047e-09
0.00301545
-1.65794e-09
0.00301546
-1.64283e-09
0.00301546
-1.62562e-09
0.00301546
-1.6067e-09
0.00301546
-1.58644e-09
0.00301546
-1.56513e-09
0.00301546
-1.54302e-09
0.00301546
-1.52035e-09
0.00301546
-1.49728e-09
0.00301546
-1.47398e-09
0.00301546
-1.45059e-09
0.00301546
-1.42722e-09
0.00301546
-1.40395e-09
0.00301546
-1.38087e-09
0.00301546
-1.35804e-09
0.00301547
-1.33551e-09
0.00301547
-1.31332e-09
0.00301547
-1.29147e-09
0.00301547
-1.27e-09
0.00301547
-1.24891e-09
0.00301547
-1.2282e-09
0.00301547
-1.20787e-09
0.00301547
-1.18791e-09
0.00301547
-1.16831e-09
0.00301547
-1.14907e-09
0.00301547
-1.13018e-09
0.00301547
-1.11163e-09
0.00301547
-1.09341e-09
0.00301547
-1.07551e-09
0.00301547
-1.05792e-09
0.00301547
-1.04063e-09
0.00301547
-1.02363e-09
0.00301547
-1.0069e-09
0.00301547
-9.90448e-10
0.00301548
-9.74252e-10
0.00301548
-9.58312e-10
0.00301548
-9.42627e-10
0.00301548
-9.27195e-10
0.00301548
-9.12015e-10
0.00301548
-8.97088e-10
0.00301548
-8.82407e-10
0.00301548
-8.67968e-10
0.00301548
-8.53757e-10
0.00301548
-8.39762e-10
0.00301548
-8.25967e-10
0.00301548
-8.12359e-10
0.00301548
-7.98922e-10
0.00301548
-7.85647e-10
0.00301548
-7.72526e-10
0.00301548
-7.59555e-10
0.00301548
-7.46735e-10
0.00301548
-7.3407e-10
0.00301548
-7.21568e-10
0.00301548
-7.09237e-10
0.00301548
-6.97086e-10
0.00301548
-6.85122e-10
0.00301548
-6.73347e-10
0.00301548
-6.61761e-10
0.00301548
-6.50357e-10
0.00301548
-6.39125e-10
0.00301549
-6.28052e-10
0.00301549
-6.17123e-10
0.00301549
-6.06326e-10
0.00301549
-5.9565e-10
0.00301549
-5.85087e-10
0.00301549
-5.74634e-10
0.00301549
-5.64289e-10
0.00301549
-5.54054e-10
0.00301549
-5.43933e-10
0.00301549
-5.33932e-10
0.00301549
-5.24059e-10
0.00301549
-5.1432e-10
0.00301549
-5.04722e-10
0.00301549
-4.95268e-10
0.00301549
-4.85959e-10
0.00301549
-4.76793e-10
0.00301549
-4.67766e-10
0.00301549
-4.58873e-10
0.00301549
-4.50108e-10
0.00301549
-4.41463e-10
0.00301549
-4.32931e-10
0.00301549
-4.24506e-10
0.00301549
-4.16187e-10
0.00301549
-4.07972e-10
0.00301549
-3.99868e-10
0.00301549
-3.91881e-10
0.00301549
-3.84019e-10