/*--------------------------------*- C++ -*----------------------------------*\
  =========                 |
  \\      /  F ield         | OpenFOAM: The Open Source CFD Toolbox
   \\    /   O peration     | Website:  https://openfoam.org
    \\  /    A nd           | Version:  7
     \\/     M anipulation  |
\*---------------------------------------------------------------------------*/
FoamFile
{
    version     2.0;
    format      ascii;
    class       volVectorField;
    location    "1";
    object      U;
}
// * * * * * * * * * * * * * * * * * * * * * * * * * * * * * * * * * * * * * //

dimensions      [0 1 -1 0 0 0 0];

internalField   nonuniform List<vector> 
48000
(
(1.00001 -5.52552e-05 0)
(1.00006 -0.000166161 0)
(1.00017 -0.000277512 0)
(1.00034 -0.000389135 0)
(1.00058 -0.000500868 0)
(1.00087 -0.000612549 0)
(1.00122 -0.000724014 0)
(1.00163 -0.000835096 0)
(1.0021 -0.000945628 0)
(1.00263 -0.00105545 0)
(1.00322 -0.00116438 0)
(1.00387 -0.00127228 0)
(1.00459 -0.00137897 0)
(1.00536 -0.00148431 0)
(1.00619 -0.00158814 0)
(1.00708 -0.00169031 0)
(1.00803 -0.00179068 0)
(1.00904 -0.00188912 0)
(1.0101 -0.00198549 0)
(1.01122 -0.00207968 0)
(1.0124 -0.00217157 0)
(1.01363 -0.00226105 0)
(1.01492 -0.00234803 0)
(1.01626 -0.00243241 0)
(1.01765 -0.00251411 0)
(1.01909 -0.00259306 0)
(1.02058 -0.0026692 0)
(1.02212 -0.00274247 0)
(1.0237 -0.00281282 0)
(1.02533 -0.00288022 0)
(1.02701 -0.00294463 0)
(1.02872 -0.00300604 0)
(1.03048 -0.00306444 0)
(1.03228 -0.00311981 0)
(1.03411 -0.00317217 0)
(1.03599 -0.00322153 0)
(1.0379 -0.00326789 0)
(1.03984 -0.00331129 0)
(1.04181 -0.00335176 0)
(1.04381 -0.00338932 0)
(1.04585 -0.00342403 0)
(1.04791 -0.00345593 0)
(1.05 -0.00348507 0)
(1.05211 -0.00351151 0)
(1.05424 -0.00353529 0)
(1.0564 -0.0035565 0)
(1.05858 -0.00357518 0)
(1.06077 -0.00359141 0)
(1.06299 -0.00360525 0)
(1.06521 -0.00361679 0)
(1.06746 -0.00362607 0)
(1.06972 -0.00363319 0)
(1.07199 -0.00363822 0)
(1.07427 -0.00364122 0)
(1.07656 -0.00364227 0)
(1.07886 -0.00364145 0)
(1.08117 -0.00363882 0)
(1.08348 -0.00363447 0)
(1.0858 -0.00362845 0)
(1.08812 -0.00362085 0)
(1.09045 -0.00361172 0)
(1.09278 -0.00360115 0)
(1.09511 -0.00358919 0)
(1.09745 -0.00357591 0)
(1.09978 -0.00356136 0)
(1.10211 -0.00354563 0)
(1.10444 -0.00352875 0)
(1.10676 -0.00351079 0)
(1.10909 -0.00349181 0)
(1.11141 -0.00347186 0)
(1.11372 -0.00345098 0)
(1.11603 -0.00342924 0)
(1.11833 -0.00340668 0)
(1.12063 -0.00338334 0)
(1.12292 -0.00335928 0)
(1.1252 -0.00333453 0)
(1.12747 -0.00330914 0)
(1.12973 -0.00328315 0)
(1.13199 -0.00325659 0)
(1.13423 -0.00322952 0)
(1.13646 -0.00320196 0)
(1.13869 -0.00317395 0)
(1.1409 -0.00314554 0)
(1.1431 -0.00311674 0)
(1.14528 -0.00308761 0)
(1.14746 -0.00305817 0)
(1.14962 -0.00302846 0)
(1.15177 -0.00299851 0)
(1.15391 -0.00296835 0)
(1.15603 -0.00293803 0)
(1.15814 -0.00290756 0)
(1.16023 -0.00287699 0)
(1.16231 -0.00284634 0)
(1.16438 -0.00281564 0)
(1.16643 -0.00278493 0)
(1.16847 -0.00275423 0)
(1.17049 -0.00272358 0)
(1.1725 -0.00269299 0)
(1.17449 -0.00266249 0)
(1.17646 -0.0026321 0)
(1.17842 -0.00260185 0)
(1.18037 -0.00257174 0)
(1.1823 -0.0025418 0)
(1.18421 -0.00251202 0)
(1.18611 -0.00248242 0)
(1.188 -0.00245299 0)
(1.18986 -0.00242373 0)
(1.19172 -0.00239463 0)
(1.19355 -0.00236567 0)
(1.19538 -0.00233683 0)
(1.19718 -0.00230808 0)
(1.19897 -0.00227939 0)
(1.20075 -0.00225071 0)
(1.2025 -0.00222199 0)
(1.20424 -0.00219319 0)
(1.20597 -0.00216425 0)
(1.20768 -0.00213509 0)
(1.20937 -0.00210566 0)
(1.21104 -0.00207587 0)
(1.2127 -0.00204565 0)
(1.21434 -0.00201493 0)
(1.21595 -0.00198362 0)
(1.21755 -0.00195165 0)
(1.21913 -0.00191894 0)
(1.22068 -0.00188541 0)
(1.22222 -0.001851 0)
(1.22373 -0.00181564 0)
(1.22521 -0.00177927 0)
(1.22667 -0.00174185 0)
(1.22811 -0.00170333 0)
(1.22952 -0.0016637 0)
(1.23089 -0.00162293 0)
(1.23224 -0.00158103 0)
(1.23356 -0.001538 0)
(1.23484 -0.00149387 0)
(1.23609 -0.00144869 0)
(1.23731 -0.0014025 0)
(1.23849 -0.00135539 0)
(1.23964 -0.00130743 0)
(1.24074 -0.00125872 0)
(1.24181 -0.00120937 0)
(1.24284 -0.00115952 0)
(1.24383 -0.00110929 0)
(1.24477 -0.00105882 0)
(1.24568 -0.00100827 0)
(1.24655 -0.000957788 0)
(1.24737 -0.000907537 0)
(1.24815 -0.000857676 0)
(1.24889 -0.000808367 0)
(1.24959 -0.000759767 0)
(1.25025 -0.00071203 0)
(1.25087 -0.000665304 0)
(1.25145 -0.000619729 0)
(1.25199 -0.000575435 0)
(1.25249 -0.000532543 0)
(1.25296 -0.000491162 0)
(1.25339 -0.000451385 0)
(1.25378 -0.000413295 0)
(1.25414 -0.00037696 0)
(1.25448 -0.000342432 0)
(1.25478 -0.00030975 0)
(1.25505 -0.000278939 0)
(1.2553 -0.000250009 0)
(1.25552 -0.000222956 0)
(1.25571 -0.000197765 0)
(1.25589 -0.000174408 0)
(1.25604 -0.000152846 0)
(1.25617 -0.000133031 0)
(1.25629 -0.000114904 0)
(1.25639 -9.84023e-05 0)
(1.25648 -8.34532e-05 0)
(1.25655 -6.99805e-05 0)
(1.25661 -5.79041e-05 0)
(1.25666 -4.71406e-05 0)
(1.2567 -3.76051e-05 0)
(1.25673 -2.92119e-05 0)
(1.25676 -2.18755e-05 0)
(1.25677 -1.55115e-05 0)
(1.25679 -1.00373e-05 0)
(1.25679 -5.37257e-06 0)
(1.2568 -1.44006e-06 0)
(1.25679 1.83401e-06 0)
(1.25679 4.51963e-06 0)
(1.25678 6.68275e-06 0)
(1.25678 8.38505e-06 0)
(1.25677 9.68386e-06 0)
(1.25675 1.06321e-05 0)
(1.25674 1.12783e-05 0)
(1.25673 1.16667e-05 0)
(1.25672 1.18373e-05 0)
(1.25671 1.18263e-05 0)
(1.25669 1.16657e-05 0)
(1.25668 1.13841e-05 0)
(1.25667 1.10068e-05 0)
(1.25666 1.05556e-05 0)
(1.25665 1.00498e-05 0)
(1.25663 9.5057e-06 0)
(1.25662 8.93732e-06 0)
(1.25662 8.35644e-06 0)
(1.25661 7.77292e-06 0)
(1.2566 7.19481e-06 0)
(1.25659 6.62865e-06 0)
(1.25658 6.07962e-06 0)
(1.25658 5.55171e-06 0)
(1.25657 5.04787e-06 0)
(1.25657 4.57021e-06 0)
(1.25656 4.12007e-06 0)
(1.25656 3.6982e-06 0)
(1.25655 3.30479e-06 0)
(1.25655 2.93965e-06 0)
(1.25655 2.60221e-06 0)
(1.25654 2.29168e-06 0)
(1.25654 2.00701e-06 0)
(1.25654 1.74705e-06 0)
(1.25654 1.51051e-06 0)
(1.25654 1.29604e-06 0)
(1.25653 1.10225e-06 0)
(1.25653 9.27756e-07 0)
(1.25653 7.71167e-07 0)
(1.25653 6.31129e-07 0)
(1.25653 5.06325e-07 0)
(1.25653 3.95493e-07 0)
(1.25653 2.97427e-07 0)
(1.25653 2.10987e-07 0)
(1.25653 1.35098e-07 0)
(1.25653 6.87542e-08 0)
(1.25653 1.10169e-08 0)
(1.25653 -3.89829e-08 0)
(1.25653 -8.20486e-08 0)
(1.25653 -1.18919e-07 0)
(1.25653 -1.50269e-07 0)
(1.25653 -1.76719e-07 0)
(1.25653 -1.98831e-07 0)
(1.25653 -2.17115e-07 0)
(1.25653 -2.32034e-07 0)
(1.25653 -2.44004e-07 0)
(1.25653 -2.534e-07 0)
(1.25653 -2.60557e-07 0)
(1.25653 -2.65775e-07 0)
(1.25653 -2.69322e-07 0)
(1.25653 -2.71433e-07 0)
(1.25653 -2.72318e-07 0)
(1.25653 -2.7216e-07 0)
(1.25653 -2.71123e-07 0)
(1.25653 -2.69349e-07 0)
(1.25653 -2.66963e-07 0)
(1.25653 -2.64074e-07 0)
(1.25653 -2.60777e-07 0)
(1.25653 -2.57154e-07 0)
(1.25654 -2.53277e-07 0)
(1.25654 -2.49206e-07 0)
(1.25654 -2.44992e-07 0)
(1.25654 -2.40679e-07 0)
(1.25654 -2.36304e-07 0)
(1.25654 -2.31894e-07 0)
(1.25654 -2.27475e-07 0)
(1.25654 -2.23067e-07 0)
(1.25654 -2.18684e-07 0)
(1.25654 -2.14341e-07 0)
(1.25654 -2.10048e-07 0)
(1.25654 -2.05815e-07 0)
(1.25654 -2.01649e-07 0)
(1.25654 -1.97557e-07 0)
(1.25654 -1.93544e-07 0)
(1.25654 -1.89612e-07 0)
(1.25654 -1.85764e-07 0)
(1.25654 -1.82001e-07 0)
(1.25654 -1.78322e-07 0)
(1.25654 -1.74724e-07 0)
(1.25654 -1.71206e-07 0)
(1.25654 -1.67764e-07 0)
(1.25654 -1.64395e-07 0)
(1.25654 -1.61095e-07 0)
(1.25654 -1.57861e-07 0)
(1.25654 -1.5469e-07 0)
(1.25654 -1.51581e-07 0)
(1.25654 -1.48532e-07 0)
(1.25654 -1.45543e-07 0)
(1.25654 -1.42613e-07 0)
(1.25654 -1.39742e-07 0)
(1.25654 -1.3693e-07 0)
(1.25654 -1.34177e-07 0)
(1.25654 -1.31482e-07 0)
(1.25654 -1.28844e-07 0)
(1.25654 -1.26261e-07 0)
(1.25654 -1.23732e-07 0)
(1.25654 -1.21254e-07 0)
(1.25654 -1.18824e-07 0)
(1.25654 -1.16441e-07 0)
(1.25654 -1.14101e-07 0)
(1.25655 -1.11803e-07 0)
(1.25655 -1.09544e-07 0)
(1.25655 -1.07323e-07 0)
(1.25655 -1.05139e-07 0)
(1.25655 -1.0299e-07 0)
(1.25655 -1.00878e-07 0)
(1.25655 -9.88011e-08 0)
(1.25655 -9.67607e-08 0)
(1.25655 -9.47571e-08 0)
(1.25655 -9.27907e-08 0)
(1.25655 -9.08617e-08 0)
(1.25655 -8.89696e-08 0)
(1.25655 -8.71138e-08 0)
(1.25655 -8.52934e-08 0)
(1.25655 -8.3507e-08 0)
(1.25655 -8.17532e-08 0)
(1.25655 -8.00306e-08 0)
(1.25655 -7.8338e-08 0)
(1.25655 -7.66744e-08 0)
(1.25655 -7.50392e-08 0)
(1.25655 -7.34318e-08 0)
(1.25655 -7.1852e-08 0)
(1.25655 -7.02994e-08 0)
(1.25655 -6.87738e-08 0)
(1.25655 -6.72749e-08 0)
(1.25655 -6.58025e-08 0)
(1.25655 -6.43563e-08 0)
(1.25655 -6.29359e-08 0)
(1.25655 -6.15411e-08 0)
(1.25655 -6.01718e-08 0)
(1.25655 -5.88274e-08 0)
(1.25655 -5.7507e-08 0)
(1.25655 -5.621e-08 0)
(1.25655 -5.49358e-08 0)
(1.25655 -5.3684e-08 0)
(1.25655 -5.24544e-08 0)
(1.25655 -5.12472e-08 0)
(1.25655 -5.00627e-08 0)
(1.25655 -4.89008e-08 0)
(1.25655 -4.77615e-08 0)
(1.25655 -4.66447e-08 0)
(1.25655 -4.55506e-08 0)
(1.25655 -4.44792e-08 0)
(1.25655 -4.34307e-08 0)
(1.25655 -4.24051e-08 0)
(1.25655 -4.14023e-08 0)
(1.25655 -4.04214e-08 0)
(1.25655 -3.9462e-08 0)
(1.25655 -3.85234e-08 0)
(1.25655 -3.7604e-08 0)
(1.25655 -3.67028e-08 0)
(1.25655 -3.58199e-08 0)
(1.25655 -3.49543e-08 0)
(1.25655 -3.41046e-08 0)
(1.25655 -3.32707e-08 0)
(1.25655 -3.24529e-08 0)
(1.25655 -3.16502e-08 0)
(1.25655 -3.08618e-08 0)
(1.25655 -3.00882e-08 0)
(1.25655 -2.93302e-08 0)
(1.25655 -2.85874e-08 0)
(1.25655 -2.78595e-08 0)
(1.25655 -2.71475e-08 0)
(1.25655 -2.64515e-08 0)
(1.25655 -2.57703e-08 0)
(1.25655 -2.51038e-08 0)
(1.25655 -2.4453e-08 0)
(1.25655 -2.38173e-08 0)
(1.25655 -2.31949e-08 0)
(1.25655 -2.25858e-08 0)
(1.25655 -2.19909e-08 0)
(1.25655 -2.14084e-08 0)
(1.25655 -2.0836e-08 0)
(1.25655 -2.02755e-08 0)
(1.25655 -1.97276e-08 0)
(1.25655 -1.91902e-08 0)
(1.25655 -1.86631e-08 0)
(1.25655 -1.81478e-08 0)
(1.25655 -1.76448e-08 0)
(1.25655 -1.71521e-08 0)
(1.25655 -1.66704e-08 0)
(1.25655 -1.62015e-08 0)
(1.25655 -1.57442e-08 0)
(1.25655 -1.52968e-08 0)
(1.25655 -1.48602e-08 0)
(1.25655 -1.44355e-08 0)
(1.25655 -1.40214e-08 0)
(1.25655 -1.36156e-08 0)
(1.25655 -1.32187e-08 0)
(1.25655 -1.28315e-08 0)
(1.25655 -1.2453e-08 0)
(1.25655 -1.20822e-08 0)
(1.25655 -1.17185e-08 0)
(1.25655 -1.1364e-08 0)
(1.25655 -1.1018e-08 0)
(1.25655 -1.06787e-08 0)
(1.25655 -1.03458e-08 0)
(1.25655 -1.00213e-08 0)
(1.25655 -9.70612e-09 0)
(1.25655 -9.39733e-09 0)
(1.25655 -9.09413e-09 0)
(1.25655 -8.79921e-09 0)
(1.25655 -8.51498e-09 0)
(1.25655 -8.23844e-09 0)
(1.25655 -7.96633e-09 0)
(1.25655 -7.7021e-09 0)
(1.25655 -7.44894e-09 0)
(1.25655 -7.20312e-09 0)
(1.25655 -6.96066e-09 0)
(1.25655 -6.72435e-09 0)
(1.25655 -6.49634e-09 0)
(1.25655 -6.27322e-09 0)
(1.25655 -6.05334e-09 0)
(1.25655 -5.83795e-09 0)
(1.25655 -5.62853e-09 0)
(1.25655 -5.42329e-09 0)
(1.25655 -5.22072e-09 0)
(1.25655 -5.0212e-09 0)
(1.25655 -4.82744e-09 0)
(1.25655 -4.63901e-09 0)
(1.25655 -4.45353e-09 0)
(1.25655 -4.27165e-09 0)
(1.25655 -4.09608e-09 0)
(1.25655 -3.92428e-09 0)
(1.25655 -3.75402e-09 0)
(1.25655 -3.59121e-09 0)
(1.25655 -3.43628e-09 0)
(1.25655 -3.28154e-09 0)
(1.25655 -3.13138e-09 0)
(1.25655 -2.99341e-09 0)
(1.25655 -2.85765e-09 0)
(1.25655 -2.71691e-09 0)
(1.25655 -2.58544e-09 0)
(1.25655 -2.46836e-09 0)
(1.25655 -2.34782e-09 0)
(1.25655 -2.22185e-09 0)
(1.25655 -2.11026e-09 0)
(1.25655 -2.00825e-09 0)
(1.25655 -1.89314e-09 0)
(1.25655 -1.7803e-09 0)
(1.25655 -1.69236e-09 0)
(1.25655 -1.60086e-09 0)
(1.25655 -1.48837e-09 0)
(1.25655 -1.39378e-09 0)
(1.25655 -1.32385e-09 0)
(1.25655 -1.22972e-09 0)
(1.25655 -1.12277e-09 0)
(1.25655 -1.05266e-09 0)
(1.25655 -9.90315e-10 0)
(1.25655 -8.93349e-10 0)
(1.25655 -8.06053e-10 0)
(1.25655 -7.56596e-10 0)
(1.25655 -6.91869e-10 0)
(1.25655 -6.02011e-10 0)
(1.25655 -5.35409e-10 0)
(1.25655 -4.90276e-10 0)
(1.25655 -4.2585e-10 0)
(1.25655 -3.50125e-10 0)
(1.25655 -2.91724e-10 0)
(1.25655 -2.42059e-10 0)
(1.25655 -1.85421e-10 0)
(1.25655 -1.21522e-10 0)
(1.25655 -5.06259e-11 0)
(1.25655 -4.59449e-12 0)
(1.25655 2.7428e-11 0)
(1.25655 9.84722e-11 0)
(1.25655 1.70114e-10 0)
(1.25655 1.77753e-10 0)
(1.25655 1.98913e-10 0)
(1.25655 2.87743e-10 0)
(1.25655 3.33362e-10 0)
(1.25655 3.14057e-10 0)
(1.25655 3.60945e-10 0)
(1.25655 4.43796e-10 0)
(1.25655 4.48396e-10 0)
(1.25655 4.46659e-10 0)
(1.25655 5.0705e-10 0)
(1.25655 5.49509e-10 0)
(1.25655 5.53752e-10 0)
(1.25655 5.81204e-10 0)
(1.25655 6.18805e-10 0)
(1.25655 6.37137e-10 0)
(1.25655 6.60023e-10 0)
(1.25655 6.87326e-10 0)
(1.25655 7.02768e-10 0)
(1.25655 7.2011e-10 0)
(1.25655 7.50214e-10 0)
(1.25655 7.80276e-10 0)
(1.25655 7.83947e-10 0)
(1.25655 7.94084e-10 0)
(1.25655 8.34421e-10 0)
(1.25655 8.50126e-10 0)
(1.25655 8.42093e-10 0)
(1.25655 8.52341e-10 0)
(1.25655 8.73512e-10 0)
(1.25655 8.82123e-10 0)
(1.25655 8.8357e-10 0)
(1.25655 8.90539e-10 0)
(1.25655 8.9821e-10 0)
(1.25655 9.11569e-10 0)
(1.25655 9.23034e-10 0)
(1.25655 9.32155e-10 0)
(1.25655 9.31816e-10 0)
(1.25655 9.33282e-10 0)
(1.25655 9.55336e-10 0)
(1.25655 9.64674e-10 0)
(1.25655 9.54073e-10 0)
(1.25655 9.43619e-10 0)
(1.25655 9.65977e-10 0)
(1.25655 9.8867e-10 0)
(1.25655 9.61758e-10 0)
(1.25655 9.50222e-10 0)
(1.25655 9.9947e-10 0)
(1.25655 9.97286e-10 0)
(1.25655 9.77472e-10 0)
(1.25655 1.00532e-09 0)
(1.25655 1.00305e-09 0)
(1.25655 1.00779e-09 0)
(1.25655 1.00672e-09 0)
(1.25655 1.01489e-09 0)
(1.25655 1.04544e-09 0)
(1.25655 1.00712e-09 0)
(1.25655 9.94887e-10 0)
(1.25655 1.04977e-09 0)
(1.25655 1.02496e-09 0)
(1.25655 9.92426e-10 0)
(1.25655 1.00103e-09 0)
(1.25655 9.85402e-10 0)
(1.25655 1.01075e-09 0)
(1.25655 9.83861e-10 0)
(1.25655 9.40621e-10 0)
(1.25655 9.62879e-10 0)
(1.25655 9.8596e-10 0)
(1.25655 9.72248e-10 0)
(1.25655 9.31194e-10 0)
(1.25655 9.55827e-10 0)
(1.25655 9.87257e-10 0)
(1.25655 9.14654e-10 0)
(1.25655 9.44566e-10 0)
(1.25655 9.46933e-10 0)
(1.25655 9.04969e-10 0)
(1.25655 9.64411e-10 0)
(1.25655 8.94247e-10 0)
(1.25655 9.30025e-10 0)
(1.25655 9.37579e-10 0)
(1.25655 9.03365e-10 0)
(1.25655 9.56068e-10 0)
(1.25655 8.68221e-10 0)
(1.25655 9.29649e-10 0)
(1.25655 9.29025e-10 0)
(1.25655 8.63e-10 0)
(1.25655 9.42155e-10 0)
(1.25655 8.70802e-10 0)
(1.25655 9.10435e-10 0)
(1.25655 9.11617e-10 0)
(1.25655 8.92732e-10 0)
(1.25655 8.84413e-10 0)
(1.25655 8.78276e-10 0)
(1.25655 8.86358e-10 0)
(1.25655 8.92443e-10 0)
(1.25655 8.57974e-10 0)
(1.25655 8.57875e-10 0)
(1.25655 8.71546e-10 0)
(1.25655 8.35835e-10 0)
(1.25655 8.51599e-10 0)
(1.25655 7.9819e-10 0)
(1.25655 8.25604e-10 0)
(1.25655 8.02979e-10 0)
(1.25655 8.05295e-10 0)
(1.25655 7.57818e-10 0)
(1.25655 8.17601e-10 0)
(1.25655 7.28214e-10 0)
(1.25655 8.00046e-10 0)
(1.25655 7.5796e-10 0)
(1.25655 7.23762e-10 0)
(1.25655 8.01084e-10 0)
(1.25655 7.12408e-10 0)
(1.25655 7.88131e-10 0)
(1.25655 7.3566e-10 0)
(1.25655 7.5472e-10 0)
(1.25655 7.39528e-10 0)
(1.25655 7.27541e-10 0)
(1.25655 7.08571e-10 0)
(1.25655 7.30996e-10 0)
(1.25655 6.48647e-10 0)
(1.25655 7.13403e-10 0)
(1.25655 6.18709e-10 0)
(1.25655 6.89952e-10 0)
(1.25655 6.20983e-10 0)
(1.25655 6.46365e-10 0)
(1.25655 6.37283e-10 0)
(1.25655 6.23614e-10 0)
(1.25655 6.69632e-10 0)
(1.25655 5.91517e-10 0)
(1.25655 6.65103e-10 0)
(1.25655 5.37561e-10 0)
(1.25655 6.80738e-10 0)
(1.25655 4.59422e-10 0)
(1.25655 6.36081e-10 0)
(1.25655 3.62272e-10 0)
(1.25655 5.59664e-10 0)
(1.25655 8.86105e-11 0)
(1.25655 6.1613e-10 0)
(1.25655 -5.05678e-10 0)
(1.25655 6.18237e-10 0)
(1.25655 -1.09247e-09 0)
(1.25655 6.87459e-10 0)
(1.25655 -2.93951e-10 0)
(1.25655 2.77817e-09 0)
(1.25655 1.10679e-08 0)
(1.00001 -0.000164774 0)
(1.00006 -0.000495504 0)
(1.00017 -0.000827562 0)
(1.00035 -0.00116043 0)
(1.00059 -0.00149361 0)
(1.00089 -0.00182661 0)
(1.00124 -0.00215895 0)
(1.00166 -0.00249011 0)
(1.00215 -0.0028196 0)
(1.00269 -0.00314691 0)
(1.00329 -0.00347155 0)
(1.00396 -0.00379303 0)
(1.00469 -0.00411086 0)
(1.00547 -0.00442459 0)
(1.00632 -0.00473374 0)
(1.00723 -0.00503789 0)
(1.0082 -0.0053366 0)
(1.00923 -0.00562946 0)
(1.01031 -0.0059161 0)
(1.01146 -0.00619615 0)
(1.01266 -0.00646926 0)
(1.01391 -0.00673513 0)
(1.01522 -0.00699344 0)
(1.01658 -0.00724395 0)
(1.018 -0.00748641 0)
(1.01947 -0.0077206 0)
(1.02098 -0.00794634 0)
(1.02255 -0.00816346 0)
(1.02416 -0.00837184 0)
(1.02581 -0.00857137 0)
(1.02752 -0.00876197 0)
(1.02926 -0.00894358 0)
(1.03104 -0.00911617 0)
(1.03287 -0.00927973 0)
(1.03473 -0.00943429 0)
(1.03663 -0.00957987 0)
(1.03856 -0.00971653 0)
(1.04053 -0.00984436 0)
(1.04253 -0.00996345 0)
(1.04456 -0.0100739 0)
(1.04662 -0.0101759 0)
(1.0487 -0.0102695 0)
(1.05081 -0.0103549 0)
(1.05295 -0.0104322 0)
(1.05511 -0.0105018 0)
(1.05729 -0.0105636 0)
(1.05948 -0.010618 0)
(1.0617 -0.0106651 0)
(1.06394 -0.0107052 0)
(1.06619 -0.0107384 0)
(1.06845 -0.010765 0)
(1.07073 -0.0107851 0)
(1.07302 -0.0107991 0)
(1.07532 -0.0108071 0)
(1.07763 -0.0108094 0)
(1.07995 -0.0108061 0)
(1.08227 -0.0107975 0)
(1.0846 -0.0107838 0)
(1.08694 -0.0107652 0)
(1.08928 -0.010742 0)
(1.09162 -0.0107142 0)
(1.09397 -0.0106822 0)
(1.09632 -0.0106461 0)
(1.09866 -0.0106062 0)
(1.10101 -0.0105625 0)
(1.10336 -0.0105153 0)
(1.1057 -0.0104647 0)
(1.10804 -0.010411 0)
(1.11037 -0.0103543 0)
(1.11271 -0.0102947 0)
(1.11503 -0.0102324 0)
(1.11735 -0.0101675 0)
(1.11967 -0.0101002 0)
(1.12198 -0.0100307 0)
(1.12428 -0.00995896 0)
(1.12657 -0.00988524 0)
(1.12885 -0.00980963 0)
(1.13112 -0.00973223 0)
(1.13339 -0.00965318 0)
(1.13564 -0.00957258 0)
(1.13788 -0.00949055 0)
(1.14012 -0.00940718 0)
(1.14234 -0.0093226 0)
(1.14454 -0.00923689 0)
(1.14674 -0.00915015 0)
(1.14892 -0.0090625 0)
(1.15109 -0.00897403 0)
(1.15325 -0.00888483 0)
(1.15539 -0.00879501 0)
(1.15752 -0.00870465 0)
(1.15964 -0.00861385 0)
(1.16174 -0.0085227 0)
(1.16382 -0.0084313 0)
(1.16589 -0.00833973 0)
(1.16795 -0.00824808 0)
(1.16999 -0.00815643 0)
(1.17201 -0.00806487 0)
(1.17402 -0.00797346 0)
(1.17601 -0.00788228 0)
(1.17799 -0.00779139 0)
(1.17995 -0.00770084 0)
(1.18189 -0.00761069 0)
(1.18382 -0.00752097 0)
(1.18573 -0.0074317 0)
(1.18763 -0.0073429 0)
(1.18951 -0.00725456 0)
(1.19137 -0.00716668 0)
(1.19322 -0.00707922 0)
(1.19505 -0.00699214 0)
(1.19686 -0.00690537 0)
(1.19866 -0.00681882 0)
(1.20044 -0.0067324 0)
(1.2022 -0.00664598 0)
(1.20394 -0.00655944 0)
(1.20567 -0.00647261 0)
(1.20738 -0.00638532 0)
(1.20907 -0.00629739 0)
(1.21074 -0.00620863 0)
(1.2124 -0.00611881 0)
(1.21403 -0.00602773 0)
(1.21565 -0.00593515 0)
(1.21724 -0.00584086 0)
(1.21881 -0.00574462 0)
(1.22037 -0.00564623 0)
(1.22189 -0.00554546 0)
(1.2234 -0.00544212 0)
(1.22488 -0.00533603 0)
(1.22633 -0.00522703 0)
(1.22776 -0.00511498 0)
(1.22916 -0.00499979 0)
(1.23053 -0.00488137 0)
(1.23187 -0.00475969 0)
(1.23318 -0.00463476 0)
(1.23446 -0.00450661 0)
(1.23571 -0.00437533 0)
(1.23692 -0.00424104 0)
(1.2381 -0.00410392 0)
(1.23924 -0.00396418 0)
(1.24034 -0.00382207 0)
(1.24141 -0.00367789 0)
(1.24244 -0.00353197 0)
(1.24342 -0.00338468 0)
(1.24437 -0.0032364 0)
(1.24528 -0.00308756 0)
(1.24615 -0.00293859 0)
(1.24697 -0.00278997 0)
(1.24776 -0.00264214 0)
(1.2485 -0.00249557 0)
(1.24921 -0.00235074 0)
(1.24987 -0.00220811 0)
(1.25049 -0.00206811 0)
(1.25108 -0.00193119 0)
(1.25162 -0.00179773 0)
(1.25213 -0.00166813 0)
(1.2526 -0.00154271 0)
(1.25304 -0.0014218 0)
(1.25344 -0.00130567 0)
(1.25381 -0.00119454 0)
(1.25415 -0.0010886 0)
(1.25446 -0.000988011 0)
(1.25474 -0.000892869 0)
(1.25499 -0.00080324 0)
(1.25521 -0.000719145 0)
(1.25542 -0.000640569 0)
(1.2556 -0.000567457 0)
(1.25575 -0.000499724 0)
(1.25589 -0.000437248 0)
(1.25601 -0.000379882 0)
(1.25612 -0.000327454 0)
(1.25621 -0.000279768 0)
(1.25628 -0.000236613 0)
(1.25635 -0.000197762 0)
(1.2564 -0.000162976 0)
(1.25644 -0.000132009 0)
(1.25648 -0.000104612 0)
(1.2565 -8.05319e-05 0)
(1.25652 -5.95175e-05 0)
(1.25653 -4.13213e-05 0)
(1.25654 -2.57011e-05 0)
(1.25654 -1.24223e-05 0)
(1.25654 -1.25916e-06 0)
(1.25654 8.0037e-06 0)
(1.25653 1.55703e-05 0)
(1.25652 2.16328e-05 0)
(1.25651 2.63703e-05 0)
(1.2565 2.99497e-05 0)
(1.25649 3.25243e-05 0)
(1.25648 3.4235e-05 0)
(1.25647 3.52098e-05 0)
(1.25645 3.55647e-05 0)
(1.25644 3.54036e-05 0)
(1.25643 3.48196e-05 0)
(1.25641 3.3895e-05 0)
(1.2564 3.27021e-05 0)
(1.25639 3.13043e-05 0)
(1.25638 2.97564e-05 0)
(1.25637 2.81053e-05 0)
(1.25636 2.63912e-05 0)
(1.25635 2.46475e-05 0)
(1.25634 2.29024e-05 0)
(1.25633 2.11787e-05 0)
(1.25632 1.94948e-05 0)
(1.25632 1.78654e-05 0)
(1.25631 1.63014e-05 0)
(1.25631 1.48111e-05 0)
(1.2563 1.34003e-05 0)
(1.2563 1.20724e-05 0)
(1.25629 1.08292e-05 0)
(1.25629 9.67116e-06 0)
(1.25628 8.59727e-06 0)
(1.25628 7.60572e-06 0)
(1.25628 6.69393e-06 0)
(1.25628 5.85871e-06 0)
(1.25627 5.0965e-06 0)
(1.25627 4.40339e-06 0)
(1.25627 3.77535e-06 0)
(1.25627 3.20822e-06 0)
(1.25627 2.69785e-06 0)
(1.25627 2.24011e-06 0)
(1.25627 1.83098e-06 0)
(1.25627 1.46658e-06 0)
(1.25627 1.14315e-06 0)
(1.25627 8.57141e-07 0)
(1.25627 6.05185e-07 0)
(1.25627 3.84112e-07 0)
(1.25626 1.9096e-07 0)
(1.25626 2.29715e-08 0)
(1.25626 -1.22408e-07 0)
(1.25626 -2.47537e-07 0)
(1.25627 -3.5458e-07 0)
(1.25627 -4.45521e-07 0)
(1.25627 -5.22171e-07 0)
(1.25627 -5.86177e-07 0)
(1.25627 -6.39031e-07 0)
(1.25627 -6.82085e-07 0)
(1.25627 -7.16555e-07 0)
(1.25627 -7.43535e-07 0)
(1.25627 -7.64004e-07 0)
(1.25627 -7.78838e-07 0)
(1.25627 -7.88817e-07 0)
(1.25627 -7.94631e-07 0)
(1.25627 -7.96894e-07 0)
(1.25627 -7.96145e-07 0)
(1.25627 -7.92859e-07 0)
(1.25627 -7.87453e-07 0)
(1.25627 -7.80289e-07 0)
(1.25627 -7.71685e-07 0)
(1.25627 -7.61912e-07 0)
(1.25627 -7.51207e-07 0)
(1.25627 -7.39774e-07 0)
(1.25627 -7.27783e-07 0)
(1.25627 -7.15383e-07 0)
(1.25627 -7.02696e-07 0)
(1.25627 -6.89827e-07 0)
(1.25627 -6.76862e-07 0)
(1.25627 -6.63875e-07 0)
(1.25627 -6.50925e-07 0)
(1.25627 -6.38063e-07 0)
(1.25627 -6.2533e-07 0)
(1.25627 -6.12758e-07 0)
(1.25627 -6.00374e-07 0)
(1.25627 -5.88199e-07 0)
(1.25627 -5.76246e-07 0)
(1.25628 -5.64527e-07 0)
(1.25628 -5.53046e-07 0)
(1.25628 -5.41808e-07 0)
(1.25628 -5.30811e-07 0)
(1.25628 -5.20053e-07 0)
(1.25628 -5.0953e-07 0)
(1.25628 -4.99236e-07 0)
(1.25628 -4.89166e-07 0)
(1.25628 -4.79313e-07 0)
(1.25628 -4.69669e-07 0)
(1.25628 -4.60228e-07 0)
(1.25628 -4.50983e-07 0)
(1.25628 -4.41927e-07 0)
(1.25628 -4.33053e-07 0)
(1.25628 -4.24356e-07 0)
(1.25628 -4.1583e-07 0)
(1.25628 -4.07471e-07 0)
(1.25628 -3.99277e-07 0)
(1.25628 -3.91246e-07 0)
(1.25628 -3.83375e-07 0)
(1.25628 -3.75663e-07 0)
(1.25628 -3.6811e-07 0)
(1.25628 -3.60713e-07 0)
(1.25628 -3.53467e-07 0)
(1.25628 -3.46368e-07 0)
(1.25628 -3.3941e-07 0)
(1.25628 -3.32584e-07 0)
(1.25628 -3.25883e-07 0)
(1.25628 -3.19301e-07 0)
(1.25628 -3.1283e-07 0)
(1.25628 -3.06466e-07 0)
(1.25628 -3.00203e-07 0)
(1.25628 -2.94042e-07 0)
(1.25628 -2.8798e-07 0)
(1.25628 -2.82019e-07 0)
(1.25628 -2.76163e-07 0)
(1.25628 -2.70413e-07 0)
(1.25628 -2.64772e-07 0)
(1.25628 -2.59242e-07 0)
(1.25628 -2.53823e-07 0)
(1.25628 -2.48511e-07 0)
(1.25628 -2.43304e-07 0)
(1.25628 -2.38195e-07 0)
(1.25628 -2.33179e-07 0)
(1.25628 -2.2825e-07 0)
(1.25628 -2.23403e-07 0)
(1.25628 -2.18634e-07 0)
(1.25628 -2.1394e-07 0)
(1.25628 -2.0932e-07 0)
(1.25628 -2.04774e-07 0)
(1.25628 -2.003e-07 0)
(1.25628 -1.95901e-07 0)
(1.25628 -1.91577e-07 0)
(1.25628 -1.8733e-07 0)
(1.25628 -1.83162e-07 0)
(1.25628 -1.79073e-07 0)
(1.25628 -1.75064e-07 0)
(1.25628 -1.71134e-07 0)
(1.25628 -1.6728e-07 0)
(1.25628 -1.63499e-07 0)
(1.25628 -1.59789e-07 0)
(1.25629 -1.56147e-07 0)
(1.25629 -1.52571e-07 0)
(1.25629 -1.49058e-07 0)
(1.25629 -1.45607e-07 0)
(1.25629 -1.42215e-07 0)
(1.25629 -1.38883e-07 0)
(1.25629 -1.35611e-07 0)
(1.25629 -1.32402e-07 0)
(1.25629 -1.29258e-07 0)
(1.25629 -1.26181e-07 0)
(1.25629 -1.2317e-07 0)
(1.25629 -1.20227e-07 0)
(1.25629 -1.17349e-07 0)
(1.25629 -1.14537e-07 0)
(1.25629 -1.11789e-07 0)
(1.25629 -1.09105e-07 0)
(1.25629 -1.06478e-07 0)
(1.25629 -1.03907e-07 0)
(1.25629 -1.01387e-07 0)
(1.25629 -9.8914e-08 0)
(1.25629 -9.64872e-08 0)
(1.25629 -9.41063e-08 0)
(1.25629 -9.17701e-08 0)
(1.25629 -8.94753e-08 0)
(1.25629 -8.72212e-08 0)
(1.25629 -8.50098e-08 0)
(1.25629 -8.28428e-08 0)
(1.25629 -8.072e-08 0)
(1.25629 -7.86423e-08 0)
(1.25629 -7.6611e-08 0)
(1.25629 -7.46248e-08 0)
(1.25629 -7.26821e-08 0)
(1.25629 -7.07849e-08 0)
(1.25629 -6.89333e-08 0)
(1.25629 -6.71227e-08 0)
(1.25629 -6.53493e-08 0)
(1.25629 -6.36142e-08 0)
(1.25629 -6.19183e-08 0)
(1.25629 -6.02575e-08 0)
(1.25629 -5.86285e-08 0)
(1.25629 -5.70311e-08 0)
(1.25629 -5.5463e-08 0)
(1.25629 -5.39225e-08 0)
(1.25629 -5.24126e-08 0)
(1.25629 -5.09385e-08 0)
(1.25629 -4.95004e-08 0)
(1.25629 -4.80947e-08 0)
(1.25629 -4.67221e-08 0)
(1.25629 -4.53857e-08 0)
(1.25629 -4.40858e-08 0)
(1.25629 -4.28202e-08 0)
(1.25629 -4.15861e-08 0)
(1.25629 -4.03825e-08 0)
(1.25629 -3.9208e-08 0)
(1.25629 -3.80589e-08 0)
(1.25629 -3.69326e-08 0)
(1.25629 -3.58305e-08 0)
(1.25629 -3.47554e-08 0)
(1.25629 -3.37045e-08 0)
(1.25629 -3.2673e-08 0)
(1.25629 -3.1662e-08 0)
(1.25629 -3.06755e-08 0)
(1.25629 -2.97129e-08 0)
(1.25629 -2.87703e-08 0)
(1.25629 -2.78481e-08 0)
(1.25629 -2.69493e-08 0)
(1.25629 -2.60723e-08 0)
(1.25629 -2.52142e-08 0)
(1.25629 -2.43785e-08 0)
(1.25629 -2.35708e-08 0)
(1.25629 -2.27887e-08 0)
(1.25629 -2.20252e-08 0)
(1.25629 -2.12794e-08 0)
(1.25629 -2.05553e-08 0)
(1.25629 -1.98514e-08 0)
(1.25629 -1.91639e-08 0)
(1.25629 -1.84924e-08 0)
(1.25629 -1.78389e-08 0)
(1.25629 -1.72027e-08 0)
(1.25629 -1.65797e-08 0)
(1.25629 -1.59679e-08 0)
(1.25629 -1.53697e-08 0)
(1.25629 -1.47854e-08 0)
(1.25629 -1.42141e-08 0)
(1.25629 -1.36572e-08 0)
(1.25629 -1.31142e-08 0)
(1.25629 -1.25787e-08 0)
(1.25629 -1.20487e-08 0)
(1.25629 -1.15333e-08 0)
(1.25629 -1.10384e-08 0)
(1.25629 -1.05586e-08 0)
(1.25629 -1.00893e-08 0)
(1.25629 -9.62895e-09 0)
(1.25629 -9.17774e-09 0)
(1.25629 -8.7457e-09 0)
(1.25629 -8.34268e-09 0)
(1.25629 -7.95491e-09 0)
(1.25629 -7.56583e-09 0)
(1.25629 -7.18699e-09 0)
(1.25629 -6.83113e-09 0)
(1.25629 -6.48489e-09 0)
(1.25629 -6.14011e-09 0)
(1.25629 -5.81223e-09 0)
(1.25629 -5.50329e-09 0)
(1.25629 -5.19122e-09 0)
(1.25629 -4.88092e-09 0)
(1.25629 -4.59665e-09 0)
(1.25629 -4.32303e-09 0)
(1.25629 -4.03436e-09 0)
(1.25629 -3.75277e-09 0)
(1.25629 -3.4992e-09 0)
(1.25629 -3.24622e-09 0)
(1.25629 -2.98327e-09 0)
(1.25629 -2.74165e-09 0)
(1.25629 -2.51767e-09 0)
(1.25629 -2.2794e-09 0)
(1.25629 -2.04252e-09 0)
(1.25629 -1.83856e-09 0)
(1.25629 -1.65067e-09 0)
(1.25629 -1.44783e-09 0)
(1.25629 -1.23953e-09 0)
(1.25629 -1.05638e-09 0)
(1.25629 -8.91396e-10 0)
(1.25629 -7.12296e-10 0)
(1.25629 -5.29056e-10 0)
(1.25629 -3.57305e-10 0)
(1.25629 -1.96377e-10 0)
(1.25629 -3.39435e-11 0)
(1.25629 1.39798e-10 0)
(1.25629 2.92344e-10 0)
(1.25629 4.1657e-10 0)
(1.25629 5.63319e-10 0)
(1.25629 7.21302e-10 0)
(1.25629 8.26918e-10 0)
(1.25629 9.1486e-10 0)
(1.25629 1.05681e-09 0)
(1.25629 1.19581e-09 0)
(1.25629 1.26508e-09 0)
(1.25629 1.34801e-09 0)
(1.25629 1.48512e-09 0)
(1.25629 1.58586e-09 0)
(1.25629 1.65544e-09 0)
(1.25629 1.74835e-09 0)
(1.25629 1.83155e-09 0)
(1.25629 1.89986e-09 0)
(1.25629 1.99226e-09 0)
(1.25629 2.07879e-09 0)
(1.25629 2.12455e-09 0)
(1.25629 2.18692e-09 0)
(1.25629 2.26551e-09 0)
(1.25629 2.31551e-09 0)
(1.25629 2.37484e-09 0)
(1.25629 2.444e-09 0)
(1.25629 2.49752e-09 0)
(1.25629 2.54815e-09 0)
(1.25629 2.59718e-09 0)
(1.25629 2.63576e-09 0)
(1.25629 2.67422e-09 0)
(1.25629 2.72105e-09 0)
(1.25629 2.74086e-09 0)
(1.25629 2.77702e-09 0)
(1.25629 2.82774e-09 0)
(1.25629 2.82985e-09 0)
(1.25629 2.85246e-09 0)
(1.25629 2.89115e-09 0)
(1.25629 2.89568e-09 0)
(1.25629 2.91003e-09 0)
(1.25629 2.95907e-09 0)
(1.25629 2.9748e-09 0)
(1.25629 2.96303e-09 0)
(1.25629 2.98072e-09 0)
(1.25629 3.01111e-09 0)
(1.25629 3.02136e-09 0)
(1.25629 2.99983e-09 0)
(1.25629 3.03386e-09 0)
(1.25629 3.06592e-09 0)
(1.25629 3.04872e-09 0)
(1.25629 3.06271e-09 0)
(1.25629 3.09496e-09 0)
(1.25629 3.09314e-09 0)
(1.25629 3.10225e-09 0)
(1.25629 3.13136e-09 0)
(1.25629 3.12114e-09 0)
(1.25629 3.12606e-09 0)
(1.25629 3.1468e-09 0)
(1.25629 3.15635e-09 0)
(1.25629 3.15517e-09 0)
(1.25629 3.17178e-09 0)
(1.25629 3.1423e-09 0)
(1.25629 3.13429e-09 0)
(1.25629 3.16144e-09 0)
(1.25629 3.11561e-09 0)
(1.25629 3.10417e-09 0)
(1.25629 3.08826e-09 0)
(1.25629 3.06107e-09 0)
(1.25629 3.05055e-09 0)
(1.25629 3.01464e-09 0)
(1.25629 2.97926e-09 0)
(1.25629 2.98694e-09 0)
(1.25629 2.99416e-09 0)
(1.25629 2.97341e-09 0)
(1.25629 2.95713e-09 0)
(1.25629 2.97965e-09 0)
(1.25629 2.91402e-09 0)
(1.25629 2.91338e-09 0)
(1.25629 2.90933e-09 0)
(1.25629 2.86582e-09 0)
(1.25629 2.90192e-09 0)
(1.25629 2.83692e-09 0)
(1.25629 2.85616e-09 0)
(1.25629 2.82005e-09 0)
(1.25629 2.80294e-09 0)
(1.25629 2.84315e-09 0)
(1.25629 2.77274e-09 0)
(1.25629 2.81704e-09 0)
(1.25629 2.80175e-09 0)
(1.25629 2.73038e-09 0)
(1.25629 2.79052e-09 0)
(1.25629 2.73219e-09 0)
(1.25629 2.74629e-09 0)
(1.25629 2.76591e-09 0)
(1.25629 2.73809e-09 0)
(1.25629 2.71104e-09 0)
(1.25629 2.72741e-09 0)
(1.25629 2.67533e-09 0)
(1.25629 2.67953e-09 0)
(1.25629 2.64813e-09 0)
(1.25629 2.65362e-09 0)
(1.25629 2.62064e-09 0)
(1.25629 2.60128e-09 0)
(1.25629 2.59177e-09 0)
(1.25629 2.52498e-09 0)
(1.25629 2.54866e-09 0)
(1.25629 2.4646e-09 0)
(1.25629 2.48961e-09 0)
(1.25629 2.42039e-09 0)
(1.25629 2.43435e-09 0)
(1.25629 2.38029e-09 0)
(1.25629 2.36498e-09 0)
(1.25629 2.36034e-09 0)
(1.25629 2.30243e-09 0)
(1.25629 2.35177e-09 0)
(1.25629 2.29609e-09 0)
(1.25629 2.33321e-09 0)
(1.25629 2.3056e-09 0)
(1.25629 2.28279e-09 0)
(1.25629 2.26832e-09 0)
(1.25629 2.21758e-09 0)
(1.25629 2.17442e-09 0)
(1.25629 2.17851e-09 0)
(1.25629 2.08868e-09 0)
(1.25629 2.11147e-09 0)
(1.25629 2.02692e-09 0)
(1.25629 2.01791e-09 0)
(1.25629 1.99213e-09 0)
(1.25629 1.93674e-09 0)
(1.25629 1.99473e-09 0)
(1.25629 1.8931e-09 0)
(1.25629 2.01774e-09 0)
(1.25629 1.81427e-09 0)
(1.25629 2.04205e-09 0)
(1.25629 1.64987e-09 0)
(1.25629 2.0921e-09 0)
(1.25629 1.40693e-09 0)
(1.25629 2.01891e-09 0)
(1.25629 1.07852e-09 0)
(1.25629 1.80997e-09 0)
(1.25629 2.79957e-10 0)
(1.25629 1.82296e-09 0)
(1.25629 -1.41652e-09 0)
(1.25629 1.7123e-09 0)
(1.25629 -3.16081e-09 0)
(1.25629 1.68744e-09 0)
(1.25629 -1.11533e-09 0)
(1.25629 6.40371e-09 0)
(1.25629 2.90836e-08 0)
(1.00001 -0.000273287 0)
(1.00006 -0.000821838 0)
(1.00018 -0.00137259 0)
(1.00037 -0.00192466 0)
(1.00061 -0.00247722 0)
(1.00092 -0.00302942 0)
(1.0013 -0.00358043 0)