# Probe 0 (0 0 0)
#       Probe             0
#        Time
         0.01       5.29939
         0.02       5.22465
         0.03       5.15231
         0.04       5.08206
         0.05       5.01374
         0.06       4.94725
         0.07       4.88251
         0.08       4.81947
         0.09       4.75805
          0.1       4.69822
         0.11       4.63993
         0.12       4.58312
         0.13       4.52777
         0.14       4.47382
         0.15       4.42123
         0.16       4.36997
         0.17          4.32
         0.18       4.27128
         0.19       4.22377
          0.2       4.17745
         0.21       4.13227
         0.22       4.08821
         0.23       4.04524
         0.24       4.00331
         0.25       3.96242
         0.26       3.92252
         0.27       3.88358
         0.28       3.84559
         0.29       3.80851
          0.3       3.77232
         0.31       3.73699
         0.32       3.70251
         0.33       3.66884
         0.34       3.63596
         0.35       3.60386
         0.36       3.57251
         0.37        3.5419
         0.38       3.51199
         0.39       3.48278
          0.4       3.45423
         0.41       3.42635
         0.42        3.3991
         0.43       3.37247
         0.44       3.34645
         0.45       3.32101
         0.46       3.29615
         0.47       3.27185
         0.48       3.24808
         0.49       3.22485
          0.5       3.20213
         0.51       3.17991
         0.52       3.15818
         0.53       3.13692
         0.54       3.11613
         0.55       3.09578
         0.56       3.07588
         0.57       3.05641
         0.58       3.03735
         0.59        3.0187
          0.6       3.00044
         0.61       2.98257
         0.62       2.96508
         0.63       2.94796
         0.64       2.93119
         0.65       2.91477
         0.66       2.89869
         0.67       2.88295
         0.68       2.86752
         0.69       2.85241
          0.7       2.83761
         0.71       2.82311
         0.72        2.8089
         0.73       2.79498
         0.74       2.78133
         0.75       2.76796
         0.76       2.75485
         0.77         2.742
         0.78        2.7294
         0.79       2.71705
          0.8       2.70494
         0.81       2.69306
         0.82       2.68141
         0.83       2.66999
         0.84       2.65878
         0.85       2.64779
         0.86         2.637
         0.87       2.62642
         0.88       2.61604
         0.89       2.60585
          0.9       2.59585
         0.91       2.58603
         0.92       2.57639
         0.93       2.56693
         0.94       2.55765
         0.95       2.54853
         0.96       2.53957
         0.97       2.53078
         0.98       2.52214
         0.99       2.51366
            1       2.50532
         1.01       2.49714
         1.02        2.4891
         1.03       2.48119
         1.04       2.47343
         1.05        2.4658
         1.06        2.4583
         1.07       2.45093
         1.08       2.44368
         1.09       2.43656
          1.1       2.42955
         1.11       2.42267
         1.12        2.4159
         1.13       2.40924
         1.14       2.40269
         1.15       2.39625
         1.16       2.38992
         1.17       2.38369
         1.18       2.37756
         1.19       2.37153
          1.2       2.36559
         1.21       2.35976
         1.22       2.35401
         1.23       2.34836
         1.24       2.34279
         1.25       2.33732
         1.26       2.33193
         1.27       2.32662
         1.28        2.3214
         1.29       2.31625
          1.3       2.31119
         1.31        2.3062
         1.32       2.30129
         1.33       2.29646
         1.34       2.29169
         1.35         2.287
         1.36       2.28238
         1.37       2.27783
         1.38       2.27334
         1.39       2.26893
          1.4       2.26457
         1.41       2.26028
         1.42       2.25606
         1.43       2.25189
         1.44       2.24779
         1.45       2.24374
         1.46       2.23975
         1.47       2.23582
         1.48       2.23195
         1.49       2.22813
          1.5       2.22436
         1.51       2.22065
         1.52       2.21698
         1.53       2.21337
         1.54       2.20981
         1.55        2.2063
         1.56       2.20284
         1.57       2.19942
         1.58       2.19605
         1.59       2.19273
          1.6       2.18945
         1.61       2.18622
         1.62       2.18303
         1.63       2.17988
         1.64       2.17677
         1.65       2.17371
         1.66       2.17068
         1.67        2.1677
         1.68       2.16475
         1.69       2.16184
          1.7       2.15897
         1.71       2.15614
         1.72       2.15334
         1.73       2.15058
         1.74       2.14786
         1.75       2.14517
         1.76       2.14251
         1.77       2.13989
         1.78        2.1373
         1.79       2.13474
          1.8       2.13222
         1.81       2.12972
         1.82       2.12726
         1.83       2.12483
         1.84       2.12243
         1.85       2.12006
         1.86       2.11771
         1.87        2.1154
         1.88       2.11311
         1.89       2.11085
          1.9       2.10862
         1.91       2.10641
         1.92       2.10424
         1.93       2.10208
         1.94       2.09996
         1.95       2.09785
         1.96       2.09578
         1.97       2.09372
         1.98        2.0917
         1.99       2.08969
            2       2.08771
         2.01       2.08575
         2.02       2.08382
         2.03        2.0819
         2.04       2.08001
         2.05       2.07814
         2.06        2.0763
         2.07       2.07447
         2.08       2.07266
         2.09       2.07088
          2.1       2.06911
         2.11       2.06737
         2.12       2.06564
         2.13       2.06394
         2.14       2.06225
         2.15       2.06058
         2.16       2.05893
         2.17        2.0573
         2.18       2.05569
         2.19       2.05409
          2.2       2.05251
         2.21       2.05095
         2.22       2.04941
         2.23       2.04788
         2.24       2.04637
         2.25       2.04488
         2.26        2.0434
         2.27       2.04194
         2.28       2.04049
         2.29       2.03906
          2.3       2.03764
         2.31       2.03624
         2.32       2.03486
         2.33       2.03349
         2.34       2.03213
         2.35       2.03079
         2.36       2.02946
         2.37       2.02815
         2.38       2.02685
         2.39       2.02556
          2.4       2.02429
         2.41       2.02303
         2.42       2.02178
         2.43       2.02055
         2.44       2.01933
         2.45       2.01812
         2.46       2.01692
         2.47       2.01574
         2.48       2.01457
         2.49       2.01341
          2.5       2.01226
         2.51       2.01112
         2.52          2.01
         2.53       2.00889
         2.54       2.00778
         2.55       2.00669
         2.56       2.00561
         2.57       2.00455
         2.58       2.00349
         2.59       2.00244
          2.6        2.0014
         2.61       2.00038
         2.62       1.99936
         2.63       1.99835
         2.64       1.99736
         2.65       1.99637
         2.66       1.99539
         2.67       1.99442
         2.68       1.99347
         2.69       1.99252
          2.7       1.99158
         2.71       1.99065
         2.72       1.98973
         2.73       1.98882
         2.74       1.98791
         2.75       1.98702
         2.76       1.98613
         2.77       1.98526
         2.78       1.98439
         2.79       1.98353
          2.8       1.98268
         2.81       1.98183
         2.82         1.981
         2.83       1.98017
         2.84       1.97935
         2.85       1.97854
         2.86       1.97773
         2.87       1.97694
         2.88       1.97615
         2.89       1.97537
          2.9       1.97459
         2.91       1.97383
         2.92       1.97307
         2.93       1.97231
         2.94       1.97157
         2.95       1.97083
         2.96        1.9701
         2.97       1.96938
         2.98       1.96866
         2.99       1.96795
            3       1.96724
         3.01       1.96654
         3.02       1.96585
         3.03       1.96517
         3.04       1.96449
         3.05       1.96382
         3.06       1.96315
         3.07       1.96249
         3.08       1.96184
         3.09       1.96119
          3.1       1.96055
         3.11       1.95991
         3.12       1.95928
         3.13       1.95866
         3.14       1.95804
         3.15       1.95743
         3.16       1.95682
         3.17       1.95622
         3.18       1.95562
         3.19       1.95503
          3.2       1.95445
         3.21       1.95387
         3.22       1.95329
         3.23       1.95272
         3.24       1.95216
         3.25        1.9516
         3.26       1.95104
         3.27        1.9505
         3.28       1.94995
         3.29       1.94941
          3.3       1.94888
         3.31       1.94835
         3.32       1.94782
         3.33        1.9473
         3.34       1.94679
         3.35       1.94628
         3.36       1.94577
         3.37       1.94527
         3.38       1.94477
         3.39       1.94428
          3.4       1.94379
         3.41       1.94331
         3.42       1.94283
         3.43       1.94235
         3.44       1.94188
         3.45       1.94141
         3.46       1.94095
         3.47       1.94049
         3.48       1.94003
         3.49       1.93958
          3.5       1.93914
         3.51       1.93869
         3.52       1.93826
         3.53       1.93782
         3.54       1.93739
         3.55       1.93696
         3.56       1.93654
         3.57       1.93612
         3.58        1.9357
         3.59       1.93529
          3.6       1.93488
         3.61       1.93447
         3.62       1.93407
         3.63       1.93367
         3.64       1.93328
         3.65       1.93289
         3.66        1.9325
         3.67       1.93212
         3.68       1.93173
         3.69       1.93136
          3.7       1.93098
         3.71       1.93061
         3.72       1.93024
         3.73       1.92988
         3.74       1.92952
         3.75       1.92916
         3.76        1.9288
         3.77       1.92845
         3.78        1.9281
         3.79       1.92775
          3.8       1.92741
         3.81       1.92707
         3.82       1.92673
         3.83        1.9264
         3.84       1.92607
         3.85       1.92574
         3.86       1.92541
         3.87       1.92509
         3.88       1.92477
         3.89       1.92445
          3.9       1.92414
         3.91       1.92382
         3.92       1.92352
         3.93       1.92321
         3.94        1.9229
         3.95        1.9226
         3.96        1.9223
         3.97       1.92201
         3.98       1.92171
         3.99       1.92142
            4       1.92113
         4.01       1.92085
         4.02       1.92056
         4.03       1.92028
         4.04          1.92
         4.05       1.91973
         4.06       1.91945
         4.07       1.91918
         4.08       1.91891
         4.09       1.91864
          4.1       1.91838
         4.11       1.91812
         4.12       1.91786
         4.13        1.9176
         4.14       1.91734
         4.15       1.91709
         4.16       1.91684
         4.17       1.91659
         4.18       1.91634
         4.19       1.91609
          4.2       1.91585
         4.21       1.91561
         4.22       1.91537
         4.23       1.91513
         4.24        1.9149
         4.25       1.91467
         4.26       1.91443
         4.27        1.9142
         4.28       1.91398
         4.29       1.91375
          4.3       1.91353
         4.31       1.91331
         4.32       1.91309
         4.33       1.91287
         4.34       1.91265
         4.35       1.91244
         4.36       1.91223
         4.37       1.91202
         4.38       1.91181
         4.39        1.9116
          4.4        1.9114
         4.41       1.91119
         4.42       1.91099
         4.43       1.91079
         4.44       1.91059
         4.45        1.9104
         4.46        1.9102
         4.47       1.91001
         4.48       1.90982
         4.49       1.90963
          4.5       1.90944
         4.51       1.90925
         4.52       1.90907
         4.53       1.90888
         4.54        1.9087
         4.55       1.90852
         4.56       1.90834
         4.57       1.90816
         4.58       1.90799
         4.59       1.90781
          4.6       1.90764
         4.61       1.90747
         4.62        1.9073
         4.63       1.90713
         4.64       1.90696
         4.65        1.9068
         4.66       1.90663
         4.67       1.90647
         4.68       1.90631
         4.69       1.90615
          4.7       1.90599
         4.71       1.90583
         4.72       1.90567
         4.73       1.90552
         4.74       1.90537
         4.75       1.90521
         4.76       1.90506
         4.77       1.90491
         4.78       1.90476
         4.79       1.90462
          4.8       1.90447
         4.81       1.90433
         4.82       1.90418
         4.83       1.90404
         4.84        1.9039
         4.85       1.90376
         4.86       1.90362
         4.87       1.90348
         4.88       1.90334
         4.89       1.90321
          4.9       1.90308
         4.91       1.90294
         4.92       1.90281
         4.93       1.90268
         4.94       1.90255
         4.95       1.90242
         4.96       1.90229
         4.97       1.90217
         4.98       1.90204
         4.99       1.90192
            5       1.90179
         5.01       1.90167
         5.02       1.90155
         5.03       1.90143
         5.04       1.90131
         5.05       1.90119
         5.06       1.90107
         5.07       1.90096
         5.08       1.90084
         5.09       1.90073
          5.1       1.90062
         5.11        1.9005
         5.12       1.90039
         5.13       1.90028
         5.14       1.90017
         5.15       1.90006
         5.16       1.89996
         5.17       1.89985
         5.18       1.89974
         5.19       1.89964
          5.2       1.89953
         5.21       1.89943
         5.22       1.89933
         5.23       1.89923
         5.24       1.89912
         5.25       1.89902
         5.26       1.89893
         5.27       1.89883
         5.28       1.89873
         5.29       1.89863
          5.3       1.89854
         5.31       1.89844
         5.32       1.89835
         5.33       1.89826
         5.34       1.89816
         5.35       1.89807
         5.36       1.89798
         5.37       1.89789
         5.38        1.8978
         5.39       1.89771
          5.4       1.89762
         5.41       1.89754
         5.42       1.89745
         5.43       1.89736
         5.44       1.89728
         5.45        1.8972
         5.46       1.89711
         5.47       1.89703
         5.48       1.89695
         5.49       1.89687
          5.5       1.89678
         5.51        1.8967
         5.52       1.89663
         5.53       1.89655
         5.54       1.89647
         5.55       1.89639
         5.56       1.89631
         5.57       1.89624
         5.58       1.89616
         5.59       1.89609
          5.6       1.89601
         5.61       1.89594
         5.62       1.89587
         5.63       1.89579
         5.64       1.89572
         5.65       1.89565
         5.66       1.89558
         5.67       1.89551
         5.68       1.89544
         5.69       1.89537
          5.7        1.8953
         5.71       1.89524
         5.72       1.89517
         5.73        1.8951
         5.74       1.89504
         5.75       1.89497
         5.76       1.89491
         5.77       1.89484
         5.78       1.89478
         5.79       1.89472
          5.8       1.89465
         5.81       1.89459
         5.82       1.89453
         5.83       1.89447
         5.84       1.89441
         5.85       1.89435
         5.86       1.89429
         5.87       1.89423
         5.88       1.89417
         5.89       1.89411
          5.9       1.89405
         5.91         1.894
         5.92       1.89394
         5.93       1.89389
         5.94       1.89383
         5.95       1.89378
         5.96       1.89372
         5.97       1.89367
         5.98       1.89361
         5.99       1.89356
            6       1.89351
         6.01       1.89346
         6.02        1.8934
         6.03       1.89335
         6.04        1.8933
         6.05       1.89325
         6.06        1.8932
         6.07       1.89315
         6.08        1.8931
         6.09       1.89305
          6.1       1.89301
         6.11       1.89296
         6.12       1.89291
         6.13       1.89286
         6.14       1.89282
         6.15       1.89277
         6.16       1.89272
         6.17       1.89268
         6.18       1.89263
         6.19       1.89259
          6.2       1.89254
         6.21        1.8925
         6.22       1.89246
         6.23       1.89241
         6.24       1.89237
         6.25       1.89233
         6.26       1.89228
         6.27       1.89224
         6.28        1.8922
         6.29       1.89216
          6.3       1.89212
         6.31       1.89208
         6.32       1.89204
         6.33         1.892
         6.34       1.89196
         6.35       1.89192
         6.36       1.89188
         6.37       1.89184
         6.38       1.89181
         6.39       1.89177
          6.4       1.89173
         6.41       1.89169
         6.42       1.89166
         6.43       1.89162
         6.44       1.89158
         6.45       1.89155
         6.46       1.89151
         6.47       1.89148
         6.48       1.89144
         6.49       1.89141
          6.5       1.89137
         6.51       1.89134
         6.52       1.89131
         6.53       1.89127
         6.54       1.89124
         6.55       1.89121
         6.56       1.89118
         6.57       1.89114
         6.58       1.89111
         6.59       1.89108
          6.6       1.89105
         6.61       1.89102
         6.62       1.89099
         6.63       1.89096
         6.64       1.89093
         6.65        1.8909
         6.66       1.89087
         6.67       1.89084
         6.68       1.89081
         6.69       1.89078
          6.7       1.89075
         6.71       1.89072
         6.72       1.89069
         6.73       1.89066
         6.74       1.89064
         6.75       1.89061
         6.76       1.89058
         6.77       1.89055
         6.78       1.89053
         6.79        1.8905
          6.8       1.89047
         6.81       1.89045
         6.82       1.89042
         6.83        1.8904
         6.84       1.89037
         6.85       1.89035
         6.86       1.89032
         6.87        1.8903
         6.88       1.89027
         6.89       1.89025
          6.9       1.89022
         6.91        1.8902
         6.92       1.89018
         6.93       1.89015
         6.94       1.89013
         6.95       1.89011
         6.96       1.89008
         6.97       1.89006
         6.98       1.89004
         6.99       1.89002
            7       1.88999
         7.01       1.88997
         7.02       1.88995
         7.03       1.88993
         7.04       1.88991
         7.05       1.88989
         7.06       1.88987
         7.07       1.88984
         7.08       1.88982
         7.09        1.8898
          7.1       1.88978
         7.11       1.88976
         7.12       1.88974
         7.13       1.88972
         7.14        1.8897
         7.15       1.88968
         7.16       1.88967
         7.17       1.88965
         7.18       1.88963
         7.19       1.88961
          7.2       1.88959
         7.21       1.88957
         7.22       1.88955
         7.23       1.88954
         7.24       1.88952
         7.25        1.8895
         7.26       1.88948
         7.27       1.88947
         7.28       1.88945
         7.29       1.88943
          7.3       1.88941
         7.31        1.8894
         7.32       1.88938
         7.33       1.88937
         7.34       1.88935
         7.35       1.88933
         7.36       1.88932
         7.37        1.8893
         7.38       1.88929
         7.39       1.88927
          7.4       1.88925
         7.41       1.88924
         7.42       1.88922
         7.43       1.88921
         7.44       1.88919
         7.45       1.88918
         7.46       1.88916
         7.47       1.88915
         7.48       1.88914
         7.49       1.88912
          7.5       1.88911
         7.51       1.88909
         7.52       1.88908
         7.53       1.88907
         7.54       1.88905
         7.55       1.88904
         7.56       1.88903
         7.57       1.88901
         7.58         1.889
         7.59       1.88899
          7.6       1.88897
         7.61       1.88896
         7.62       1.88895
         7.63       1.88894
         7.64       1.88892
         7.65       1.88891
         7.66        1.8889
         7.67       1.88889
         7.68       1.88887
         7.69       1.88886
          7.7       1.88885
         7.71       1.88884
         7.72       1.88883
         7.73       1.88882
         7.74        1.8888
         7.75       1.88879
         7.76       1.88878
         7.77       1.88877
         7.78       1.88876
         7.79       1.88875
          7.8       1.88874
         7.81       1.88873
         7.82       1.88872
         7.83       1.88871
         7.84        1.8887
         7.85       1.88869
         7.86       1.88868
         7.87       1.88867
         7.88       1.88866
         7.89       1.88865
          7.9       1.88864
         7.91       1.88863
         7.92       1.88862
         7.93       1.88861
         7.94        1.8886
         7.95       1.88859
         7.96       1.88858
         7.97       1.88857
         7.98       1.88856
         7.99       1.88855
            8       1.88854
         8.01       1.88854
         8.02       1.88853
         8.03       1.88852
         8.04       1.88851
         8.05        1.8885
         8.06       1.88849
         8.07       1.88848
         8.08       1.88848
         8.09       1.88847
          8.1       1.88846
         8.11       1.88845
         8.12       1.88844
         8.13       1.88844
         8.14       1.88843
         8.15       1.88842
         8.16       1.88841
         8.17       1.88841
         8.18        1.8884
         8.19       1.88839
          8.2       1.88838
         8.21       1.88838
         8.22       1.88837
         8.23       1.88836
         8.24       1.88836
         8.25       1.88835
         8.26       1.88834
         8.27       1.88833
         8.28       1.88833
         8.29       1.88832
          8.3       1.88831
         8.31       1.88831
         8.32        1.8883
         8.33       1.88829
         8.34       1.88829
         8.35       1.88828
         8.36       1.88828
         8.37       1.88827
         8.38       1.88826
         8.39       1.88826
          8.4       1.88825
         8.41       1.88824
         8.42       1.88824
         8.43       1.88823
         8.44       1.88823
         8.45       1.88822
         8.46       1.88822
         8.47       1.88821
         8.48        1.8882
         8.49        1.8882
          8.5       1.88819
         8.51       1.88819
         8.52       1.88818
         8.53       1.88818
         8.54       1.88817
         8.55       1.88817
         8.56       1.88816
         8.57       1.88816
         8.58       1.88815
         8.59       1.88815
          8.6       1.88814
         8.61       1.88814
         8.62       1.88813
         8.63       1.88813
         8.64       1.88812
         8.65       1.88812
         8.66       1.88811
         8.67       1.88811
         8.68        1.8881
         8.69        1.8881
          8.7       1.88809
         8.71       1.88809
         8.72       1.88808
         8.73       1.88808
         8.74       1.88807
         8.75       1.88807
         8.76       1.88807
         8.77       1.88807
         8.78       1.88806
         8.79       1.88806
          8.8       1.88805
         8.81       1.88805
         8.82       1.88804
         8.83       1.88804
         8.84       1.88803
         8.85       1.88803
         8.86       1.88802
         8.87       1.88803
         8.88       1.88802
         8.89       1.88802
          8.9       1.88801
         8.91       1.88801
         8.92         1.888
         8.93         1.888
         8.94         1.888
         8.95         1.888
         8.96       1.88799
         8.97       1.88799
         8.98       1.88798
         8.99       1.88798
            9       1.88798
         9.01       1.88798
         9.02       1.88797
         9.03       1.88797
         9.04       1.88796
         9.05       1.88796
         9.06       1.88796
         9.07       1.88796
         9.08       1.88795
         9.09       1.88795
          9.1       1.88794
         9.11       1.88794
         9.12       1.88794
         9.13       1.88794
         9.14       1.88793
         9.15       1.88793
         9.16       1.88793
         9.17       1.88793
         9.18       1.88793
         9.19       1.88792
          9.2       1.88792
         9.21       1.88792
         9.22       1.88791
         9.23       1.88791
         9.24       1.88791
         9.25       1.88791
         9.26       1.88791
         9.27       1.88789
         9.28        1.8879
         9.29        1.8879
          9.3        1.8879
         9.31       1.88788
         9.32       1.88789
         9.33       1.88789
         9.34       1.88789
         9.35       1.88788
         9.36       1.88788
         9.37       1.88788
         9.38       1.88788
         9.39       1.88787
          9.4       1.88787
         9.41       1.88787
         9.42       1.88787
         9.43       1.88786
         9.44       1.88786
         9.45       1.88786
         9.46       1.88786
         9.47       1.88785
         9.48       1.88785
         9.49       1.88785
          9.5       1.88785
         9.51       1.88785
         9.52       1.88785
         9.53       1.88784
         9.54       1.88784
         9.55       1.88784
         9.56       1.88784
         9.57       1.88784
         9.58       1.88784
         9.59       1.88783
          9.6       1.88783
         9.61       1.88783
         9.62       1.88783
         9.63       1.88782
         9.64       1.88782
         9.65       1.88782
         9.66       1.88782
         9.67       1.88782
         9.68       1.88782
         9.69       1.88782
          9.7       1.88782
         9.71       1.88781
         9.72       1.88781
         9.73       1.88781
         9.74       1.88781
         9.75       1.88781
         9.76        1.8878
         9.77        1.8878
         9.78        1.8878
         9.79        1.8878
          9.8        1.8878
         9.81        1.8878
         9.82       1.88779
         9.83        1.8878
         9.84        1.8878
         9.85        1.8878
         9.86       1.88779
         9.87       1.88779
         9.88       1.88779
         9.89       1.88779
          9.9       1.88779
         9.91       1.88779
         9.92       1.88778
         9.93       1.88778
         9.94       1.88778
         9.95       1.88778
         9.96       1.88778
         9.97       1.88778
         9.98       1.88777
         9.99       1.88777
           10       1.88778
