/*--------------------------------*- C++ -*----------------------------------*\
  =========                 |
  \\      /  F ield         | OpenFOAM: The Open Source CFD Toolbox
   \\    /   O peration     | Website:  https://openfoam.org
    \\  /    A nd           | Version:  7
     \\/     M anipulation  |
\*---------------------------------------------------------------------------*/
FoamFile
{
    version     2.0;
    format      ascii;
    class       volScalarField;
    location    "7.5";
    object      p;
}
// * * * * * * * * * * * * * * * * * * * * * * * * * * * * * * * * * * * * * //

dimensions      [0 2 -2 0 0 0 0];

internalField   nonuniform List<scalar> 
500
(
3.76704
3.76705
3.76705
3.76704
3.82362
3.82362
3.82362
3.82362
3.84079
3.84061
3.84061
3.84079
3.88197
3.88065
3.88065
3.88197
3.9597
3.95817
3.95817
3.9597
3.36336
3.36335
3.36335
3.36336
3.41683
3.41677
3.41677
3.41683
3.40826
3.4082
3.4082
3.40826
3.42233
3.42228
3.42228
3.42233
3.41898
3.41877
3.41877
3.41898
3.25808
3.2581
3.2581
3.25808
3.29793
3.29807
3.29807
3.29793
3.2893
3.28956
3.28956
3.2893
3.2986
3.29885
3.29885
3.2986
3.29355
3.29364
3.29364
3.29355
2.92491
2.92491
2.92491
2.92491
2.96506
2.96504
2.96504
2.96506
2.95586
2.95582
2.95582
2.95586
2.9659
2.96586
2.96586
2.9659
2.96038
2.96033
2.96033
2.96038
2.77319
2.7732
2.7732
2.77319
2.8018
2.80188
2.80188
2.8018
2.79364
2.7938
2.7938
2.79364
2.80072
2.80089
2.80089
2.80072
2.7955
2.79565
2.79565
2.7955
2.54524
2.54524
2.54524
2.54524
2.57352
2.57352
2.57352
2.57352
2.56686
2.56684
2.56684
2.56686
2.5751
2.57505
2.57505
2.5751
2.57039
2.57038
2.57038
2.57039
2.38137
2.38137
2.38137
2.38137
2.4041
2.40413
2.40413
2.4041
2.39808
2.39813
2.39813
2.39808
2.40483
2.40489
2.40489
2.40483
2.40059
2.40074
2.40074
2.40059
2.20635
2.20635
2.20635
2.20635
2.22775
2.22776
2.22776
2.22775
2.22269
2.22269
2.22269
2.22269
2.22955
2.22953
2.22953
2.22955
2.22573
2.22575
2.22575
2.22573
2.05003
2.05003
2.05003
2.05003
2.06874
2.06876
2.06876
2.06874
2.06416
2.06417
2.06417
2.06416
2.0702
2.0702
2.0702
2.0702
2.06671
2.06679
2.06679
2.06671
1.89792
1.89792
1.89792
1.89792
1.91522
1.91523
1.91523
1.91522
1.91116
1.91116
1.91116
1.91116
1.91688
1.91687
1.91687
1.91688
1.91369
1.91374
1.91374
1.91369
1.75333
1.75333
1.75333
1.75333
1.76899
1.769
1.769
1.76899
1.76532
1.76532
1.76532
1.76532
1.77052
1.77052
1.77052
1.77052
1.76761
1.76766
1.76766
1.76761
1.61336
1.61336
1.61336
1.61336
1.62792
1.62793
1.62793
1.62792
1.62456
1.62456
1.62456
1.62456
1.62942
1.62941
1.62941
1.62942
1.62674
1.62678
1.62678
1.62674
1.47825
1.47825
1.47825
1.47825
1.49157
1.49158
1.49158
1.49157
1.48851
1.48851
1.48851
1.48851
1.49296
1.49295
1.49295
1.49296
1.4905
1.49054
1.49054
1.4905
1.34645
1.34645
1.34645
1.34645
1.35897
1.35897
1.35897
1.35897
1.35612
1.35612
1.35612
1.35612
1.36029
1.36028
1.36028
1.36029
1.35801
1.35804
1.35804
1.35801
1.21836
1.21836
1.21836
1.21836
1.22985
1.22985
1.22985
1.22985
1.22723
1.22723
1.22723
1.22723
1.23106
1.23105
1.23105
1.23106
1.22896
1.22899
1.22899
1.22896
1.0926
1.0926
1.0926
1.0926
1.1035
1.10351
1.10351
1.1035
1.10105
1.10104
1.10104
1.10105
1.10465
1.10464
1.10464
1.10465
1.10269
1.10272
1.10272
1.10269
0.969846
0.969846
0.969846
0.969846
0.97984
0.979844
0.979844
0.97984
0.977575
0.977572
0.977572
0.977575
0.980876
0.980866
0.980866
0.980876
0.979066
0.979097
0.979097
0.979066
0.848749
0.84875
0.84875
0.848749
0.858325
0.858328
0.858328
0.858325
0.85618
0.856177
0.856177
0.85618
0.859315
0.859304
0.859304
0.859315
0.857609
0.857636
0.857636
0.857609
0.730179
0.730179
0.730179
0.730179
0.738935
0.738937
0.738937
0.738935
0.736945
0.736942
0.736942
0.736945
0.739813
0.739803
0.739803
0.739813
0.738244
0.73827
0.73827
0.738244
0.612817
0.612817
0.612817
0.612817
0.621284
0.621286
0.621286
0.621284
0.619396
0.619393
0.619393
0.619396
0.622137
0.622128
0.622128
0.622137
0.620644
0.620669
0.620669
0.620644
0.4976
0.4976
0.4976
0.4976
0.505308
0.50531
0.50531
0.505308
0.503541
0.503539
0.503539
0.503541
0.506049
0.50604
0.50604
0.506049
0.504685
0.504707
0.504707
0.504685
0.38335
0.38335
0.38335
0.38335
0.390868
0.39087
0.39087
0.390868
0.389208
0.389205
0.389205
0.389208
0.391605
0.391598
0.391598
0.391605
0.390293
0.390316
0.390316
0.390293
0.270794
0.270794
0.270794
0.270794
0.27759
0.277591
0.277591
0.27759
0.276025
0.276021
0.276021
0.276025
0.27821
0.278199
0.278199
0.27821
0.277044
0.27706
0.27706
0.277044
0.159435
0.159436
0.159436
0.159435
0.16596
0.165962
0.165962
0.16596
0.164627
0.164626
0.164626
0.164627
0.166553
0.166549
0.166549
0.166553
0.165512
0.165538
0.165538
0.165512
0.0493566
0.0493569
0.0493569
0.0493566
0.0544889
0.0544898
0.0544898
0.0544889
0.0535053
0.0535027
0.0535027
0.0535053
0.0548473
0.0548398
0.0548398
0.0548473
0.0541286
0.0541335
0.0541335
0.0541286
)
;

boundaryField
{
    inlet
    {
        type            zeroGradient;
    }
    outlet
    {
        type            fixedValue;
        value           uniform 0;
    }
    wall
    {
        type            zeroGradient;
    }
    back
    {
        type            wedge;
    }
    front
    {
        type            wedge;
    }
    axis
    {
        type            empty;
    }
}


// ************************************************************************* //
