/*--------------------------------*- C++ -*----------------------------------*\
  =========                 |
  \\      /  F ield         | OpenFOAM: The Open Source CFD Toolbox
   \\    /   O peration     | Website:  https://openfoam.org
    \\  /    A nd           | Version:  7
     \\/     M anipulation  |
\*---------------------------------------------------------------------------*/
FoamFile
{
    version     2.0;
    format      ascii;
    class       surfaceScalarField;
    location    "7.5";
    object      phi;
}
// * * * * * * * * * * * * * * * * * * * * * * * * * * * * * * * * * * * * * //

dimensions      [0 3 -1 0 0 0 0];

internalField   nonuniform List<scalar> 
1255
(
2.74459e-05
-1.75468e-05
0.000290667
4.11952e-15
-1.77916e-05
0.000290576
-2.74459e-05
-1.77916e-05
0.000290576
-1.75468e-05
0.000290667
8.15824e-05
-7.37035e-05
0.000876499
6.80513e-13
-7.5382e-05
0.000875188
-8.15824e-05
-7.5382e-05
0.000875188
-7.37035e-05
0.000876499
0.000122519
-0.000194781
0.00147452
-2.16532e-11
-0.000198343
0.00147217
-0.000122519
-0.000198343
0.00147217
-0.000194781
0.00147452
0.000223965
-0.000281764
0.00203144
8.75442e-12
-0.000285984
0.00202897
-0.000223965
-0.000285984
0.00202897
-0.000281764
0.00203144
0.000128768
0.00205276
7.10761e-11
0.00205083
-0.000128768
0.00205083
0.00205276
3.02533e-05
-1.86537e-05
0.00033968
-8.18174e-14
-1.89202e-05
0.000339749
-3.02533e-05
-1.89202e-05
0.000339749
-1.86537e-05
0.00033968
9.1994e-05
-7.38211e-05
0.0010229
-6.33644e-13
-7.57173e-05
0.00102398
-9.1994e-05
-7.57173e-05
0.00102398
-7.38211e-05
0.0010229
0.000136502
-0.000172737
0.00170687
5.6434e-11
-0.00017619
0.00170915
-0.000136502
-0.00017619
0.00170915
-0.000172737
0.00170687
0.000212662
-0.000202357
0.00227012
-1.05083e-10
-0.000206947
0.00227239
-0.000212662
-0.000206947
0.00227239
-0.000202357
0.00227012
9.76915e-05
0.0019403
-2.62017e-10
0.00194157
-9.76921e-05
0.00194157
0.0019403
2.29948e-05
-1.4503e-05
0.00037751
2.85758e-13
-1.47123e-05
0.000377456
-2.29948e-05
-1.47123e-05
0.000377456
-1.4503e-05
0.00037751
6.96977e-05
-5.84009e-05
0.00113974
-3.47368e-12
-5.99018e-05
0.00113887
-6.96977e-05
-5.99018e-05
0.00113887
-5.84009e-05
0.00113974
0.000103252
-0.000131824
0.00188905
-1.00477e-10
-0.000134469
0.00188697
-0.000103252
-0.000134469
0.00188697
-0.000131824
0.00188905
0.000153045
-0.000138823
0.00243535
1.84752e-10
-0.000142029
0.002433
-0.000153045
-0.000142029
0.002433
-0.000138823
0.00243535
5.31201e-05
0.00185413
5.20696e-10
0.00185266
-5.3119e-05
0.00185266
0.00185413
2.29393e-05
-1.39001e-05
0.000414458
-7.8233e-13
-1.40967e-05
0.000414492
-2.29393e-05
-1.40967e-05
0.000414492
-1.39001e-05
0.000414458
6.78341e-05
-5.2632e-05
0.00124602
1.05471e-11
-5.39969e-05
0.0012466
-6.78341e-05
-5.39969e-05
0.0012466
-5.2632e-05
0.00124602
9.62136e-05
-0.000109183
0.00203896
1.59441e-10
-0.000111406
0.00204059
-9.62133e-05
-0.000111406
0.00204059
-0.000109183
0.00203896
0.000127908
-0.000100826
0.00255082
-4.19931e-10
-0.00010327
0.00255277
-0.000127908
-0.000103269
0.00255277
-0.000100826
0.00255082
3.36369e-05
0.00178192
-1.03407e-09
0.00178303
-3.3639e-05
0.00178303
0.00178192
1.6672e-05
-1.02228e-05
0.000441551
2.24839e-12
-1.03685e-05
0.000441533
-1.6672e-05
-1.03685e-05
0.000441533
-1.02228e-05
0.000441551
4.88754e-05
-3.94279e-05
0.00132588
-4.55001e-11
-4.04502e-05
0.00132556
-4.88755e-05
-4.04502e-05
0.00132556
-3.94279e-05
0.00132588
6.88288e-05
-8.11639e-05
0.00215283
-2.61266e-10
-8.27946e-05
0.00215176
-6.88294e-05
-8.27946e-05
0.00215176
-8.11639e-05
0.00215283
8.79274e-05
-6.88726e-05
0.00263002
8.00056e-10
-7.052e-05
0.00262842
-8.79258e-05
-7.05201e-05
0.00262842
-6.88727e-05
0.00263002
1.25995e-05
0.00172621
2.46275e-09
0.00172511
-1.25946e-05
0.00172511
0.00172621
1.60243e-05
-9.56389e-06
0.000467245
-4.35737e-12
-9.69729e-06
0.000467254
-1.60243e-05
-9.69729e-06
0.000467254
-9.56389e-06
0.000467245
4.57348e-05
-3.53855e-05
0.00139772
1.09771e-10
-3.62964e-05
0.00139789
-4.57346e-05
-3.62964e-05
0.00139789
-3.53855e-05
0.00139772
6.30353e-05
-6.78929e-05
0.00224711
2.52459e-10
-6.92477e-05
0.00224775
-6.30348e-05
-6.92477e-05
0.00224775
-6.78928e-05
0.00224711
7.41293e-05
-5.12532e-05
0.00268479
-1.65214e-09
-5.25232e-05
0.00268583
-7.41326e-05
-5.25231e-05
0.00268583
-5.1253e-05
0.00268479
8.85679e-06
0.00168067
-4.59839e-09
0.00168145
-8.8658e-06
0.00168145
0.00168067
1.30244e-05
-7.78401e-06
0.000488176
2.40412e-12
-7.8929e-06
0.000488172
-1.30244e-05
-7.8929e-06
0.000488172
-7.78401e-06
0.000488176
3.68209e-05
-2.88056e-05
0.00145643
-2.69723e-10
-2.95485e-05
0.00145637
-3.68215e-05
-2.95485e-05
0.00145637
-2.88056e-05
0.00145643
4.97708e-05
-5.38196e-05
0.00232313
-2.02235e-10
-5.48942e-05
0.00232286
-4.97712e-05
-5.48943e-05
0.00232286
-5.38199e-05
0.00232313
5.41969e-05
-3.74224e-05
0.00272404
2.53267e-09
-3.83655e-05
0.00272349
-5.41916e-05
-3.83658e-05
0.00272349
-3.74234e-05
0.00272404
-2.78872e-07
0.00164337
1.80778e-09
0.0016428
2.82065e-07
0.0016428
0.00164337
1.20662e-05
-7.11654e-06
0.000507451
4.06019e-12
-7.21491e-06
0.000507453
-1.20662e-05
-7.21491e-06
0.000507453
-7.11654e-06
0.000507451
3.35079e-05
-2.57369e-05
0.00150903
1.24806e-10
-2.63966e-05
0.00150906
-3.35077e-05
-2.63966e-05
0.00150906
-2.57368e-05
0.00150903
4.44029e-05
-4.57641e-05
0.00238741
-3.05872e-09
-4.66627e-05
0.00238754
-4.44089e-05
-4.66627e-05
0.00238754
-4.57642e-05
0.00238741
4.54785e-05
-2.89041e-05
0.00275172
-1.25774e-08
-2.96286e-05
0.00275195
-4.55043e-05
-2.9628e-05
0.00275195
-2.89027e-05
0.00275172
-2.56832e-08
0.00161295
-1.08418e-07
0.00161326
-1.90798e-07
0.00161326
0.00161296
1.05815e-05
-6.21831e-06
0.000524339
-2.82523e-12
-6.30415e-06
0.000524338
-1.05815e-05
-6.30415e-06
0.000524338
-6.21831e-06
0.000524339
2.91253e-05
-2.22467e-05
0.0015547
3.90817e-10
-2.28173e-05
0.0015547
-2.91246e-05
-2.28173e-05
0.0015547
-2.22466e-05
0.0015547
3.77511e-05
-3.82047e-05
0.00244145
-5.66699e-10
-3.89558e-05
0.00244143
-3.77524e-05
-3.89557e-05
0.00244143
-3.82043e-05
0.00244145
3.59691e-05
-2.21833e-05
0.00277178
-6.71584e-09
-2.27542e-05
0.00277173
-3.59829e-05
-2.27537e-05
0.00277173
-2.21816e-05
0.00277178
-2.90115e-06
0.0015877
-3.18807e-08
0.00158763
2.83791e-06
0.00158763
0.00158771
9.71652e-06
-5.66947e-06
0.000539802
-7.9449e-12
-5.74727e-06
0.000539802
-9.71654e-06
-5.74727e-06
0.000539802
-5.66947e-06
0.000539802
2.64263e-05
-1.99301e-05
0.00159581
2.66619e-10
-2.04401e-05
0.00159581
-2.64258e-05
-2.04401e-05
0.00159581
-1.99301e-05
0.00159581
3.34393e-05
-3.29406e-05
0.00248799
5.33552e-10
-3.35829e-05
0.00248801
-3.34383e-05
-3.35828e-05
0.00248801
-3.29404e-05
0.00248799
3.00974e-05
-1.75804e-05
0.00278625
-2.75418e-09
-1.80348e-05
0.00278628
-3.0103e-05
-1.80346e-05
0.00278628
-1.75797e-05
0.00278625
-3.1478e-06
0.0015664
-9.53699e-09
0.00156646
3.12913e-06
0.00156646
0.0015664
8.78379e-06
-5.10268e-06
0.000553759
-5.84296e-12
-5.1725e-06
0.000553758
-8.7838e-06
-5.1725e-06
0.000553758
-5.10268e-06
0.000553759
2.36947e-05
-1.77004e-05
0.00163249
1.09491e-10
-1.8153e-05
0.00163249
-2.36945e-05
-1.8153e-05
0.00163249
-1.77004e-05
0.00163249
2.93362e-05
-2.83355e-05
0.00252808
5.98841e-10
-2.88869e-05
0.00252808
-2.9335e-05
-2.88868e-05
0.00252808
-2.83354e-05
0.00252808
2.49971e-05
-1.39555e-05
0.00279672
-1.15561e-09
-1.43236e-05
0.00279671
-2.49994e-05
-1.43235e-05
0.00279671
-1.39552e-05
0.00279672
-3.83015e-06
0.0015483
-3.42345e-09
0.00154831
3.82342e-06
0.00154831
0.0015483
8.14199e-06
-4.70576e-06
0.00056667
-2.68917e-12
-4.76992e-06
0.00056667
-8.142e-06
-4.76992e-06
0.00056667
-4.70576e-06
0.00056667
2.17675e-05
-1.60588e-05
0.00166595
2.64822e-11
-1.64691e-05
0.00166596
-2.17675e-05
-1.64691e-05
0.00166596
-1.60588e-05
0.00166595
2.62645e-05
-2.49036e-05
0.00256325
4.31374e-10
-2.53863e-05
0.00256326
-2.62637e-05
-2.53863e-05
0.00256326
-2.49036e-05
0.00256325
2.1354e-05
-1.13699e-05
0.00280435
-4.32401e-10
-1.16741e-05
0.00280435
-2.13549e-05
-1.1674e-05
0.00280435
-1.13698e-05
0.00280435
-3.99823e-06
0.00153261
-1.27736e-09
0.00153264
3.99571e-06
0.00153264
0.00153261
7.43461e-06
-4.2797e-06
0.000578443
-8.41023e-13
-4.33789e-06
0.000578443
-7.43461e-06
-4.33789e-06
0.000578443
-4.2797e-06
0.000578443
1.97324e-05
-1.442e-05
0.00169614
-4.71628e-12
-1.47882e-05
0.00169614
-1.97324e-05
-1.47882e-05
0.00169614
-1.442e-05
0.00169614
2.33168e-05
-2.17862e-05
0.002594
2.64685e-10
-2.22075e-05
0.00259399
-2.33163e-05
-2.22075e-05
0.00259399
-2.17862e-05
0.002594
1.81871e-05
-9.24671e-06
0.00280984
-1.33182e-10
-9.4987e-06
0.00280983
-1.81874e-05
-9.49869e-06
0.00280983
-9.24667e-06
0.00280984
-4.12476e-06
0.00151901
-4.80772e-10
0.00151902
4.12381e-06
0.00151902
0.00151901
6.97246e-06
-3.99702e-06
0.000589466
-8.0104e-14
-4.05121e-06
0.000589467
-6.97246e-06
-4.05121e-06
0.000589467
-3.99702e-06
0.000589466
1.83721e-05
-1.32596e-05
0.00172406
-1.12046e-11
-1.35981e-05
0.00172406
-1.83722e-05
-1.35981e-05
0.00172406
-1.32596e-05
0.00172406
2.11585e-05
-1.95072e-05
0.00262143
1.47639e-10
-1.98833e-05
0.00262144
-2.11582e-05
-1.98833e-05
0.00262144
-1.95072e-05
0.00262143
1.59342e-05
-7.75264e-06
0.00281385
-1.90425e-11
-7.96702e-06
0.00281385
-1.59343e-05
-7.96701e-06
0.00281385
-7.75263e-06
0.00281385
-4.06259e-06
0.00150696
-1.78113e-10
0.00150699
4.06224e-06
0.00150699
0.00150696
6.3879e-06
-3.64821e-06
0.000599552
1.27776e-13
-3.69755e-06
0.000599552
-6.3879e-06
-3.69755e-06
0.000599552
-3.64821e-06
0.000599552
1.67188e-05
-1.19654e-05
0.00174935
-9.72861e-12
-1.22708e-05
0.00174935
-1.67188e-05
-1.22708e-05
0.00174935
-1.19654e-05
0.00174935
1.88969e-05
-1.7251e-05
0.00264565
7.73647e-11
-1.75832e-05
0.00264565
-1.88968e-05
-1.75832e-05
0.00264565
-1.7251e-05
0.00264565
1.38079e-05
-6.42773e-06
0.00281669
1.6031e-11
-6.60897e-06
0.00281668
-1.38078e-05
-6.60897e-06
0.00281668
-6.42772e-06
0.00281669
-4.01744e-06
0.00149636
-5.91621e-11
0.00149636
4.01733e-06
0.00149636
0.00149636
6.05366e-06
-3.44615e-06
0.000609098
1.54192e-13
-3.49265e-06
0.000609098
-6.05366e-06
-3.49265e-06
0.000609098
-3.44615e-06
0.000609098
1.57554e-05
-1.1141e-05
0.00177304
-6.66779e-12
-1.14252e-05
0.00177304
-1.57554e-05
-1.14252e-05
0.00177304
-1.1141e-05
0.00177304
1.73697e-05
-1.57008e-05
0.00266759
3.80388e-11
-1.60024e-05
0.00266759
-1.73696e-05
-1.60024e-05
0.00266759
-1.57008e-05
0.00266759
1.23639e-05
-5.53188e-06
0.00281874
2.11787e-11
-5.68997e-06
0.00281874
-1.23638e-05
-5.68997e-06
0.00281874
-5.53188e-06
0.00281874
-3.86453e-06
0.00148679
-1.46019e-11
0.00148681
3.8645e-06
0.00148681
0.00148679
5.54506e-06
-3.14391e-06
0.00061783
1.05006e-13
-3.18622e-06
0.00061783
-5.54506e-06
-3.18622e-06
0.00061783
-3.14391e-06
0.00061783
1.43286e-05
-1.00621e-05
0.0017945
-4.06282e-12
-1.03188e-05
0.0017945
-1.43287e-05
-1.03188e-05
0.0017945
-1.00621e-05
0.0017945
1.55497e-05
-1.39751e-05
0.00268707
1.77242e-11
-1.42434e-05
0.00268707
-1.55497e-05
-1.42434e-05
0.00268707
-1.39751e-05
0.00268707
1.08534e-05
-4.65752e-06
0.00282015
1.70228e-11
-4.79332e-06
0.00282014
-1.08534e-05
-4.79332e-06
0.00282014
-4.65752e-06
0.00282015
-3.7425e-06
0.00147827
5.83671e-13
0.00147827
3.7425e-06
0.00147827
0.00147827
5.30663e-06
-3.00328e-06
0.00062618
7.37801e-14
-3.04365e-06
0.00062618
-5.30663e-06
-3.04365e-06
0.00062618
-3.00328e-06
0.00062618
1.36693e-05
-9.49075e-06
0.00181486
-2.29322e-12
-9.7328e-06
0.00181486
-1.36694e-05
-9.7328e-06
0.00181486
-9.49075e-06
0.00181486
1.44845e-05
-1.29125e-05
0.00270498
7.61548e-12
-1.31599e-05
0.00270498
-1.44845e-05
-1.31599e-05
0.00270498
-1.29125e-05
0.00270498
9.89057e-06
-4.09969e-06
0.00282109
1.13748e-11
-4.22065e-06
0.00282109
-9.89054e-06
-4.22065e-06
0.00282109
-4.09969e-06
0.00282109
-3.57917e-06
0.00147046
4.13096e-12
0.00147047
3.57918e-06
0.00147047
0.00147046
4.84709e-06
-2.72867e-06
0.000633792
3.49781e-14
-2.76523e-06
0.000633792
-4.84709e-06
-2.76523e-06
0.000633792
-2.72867e-06
0.000633792
1.23704e-05
-8.54209e-06
0.00183322
-1.21679e-12
-8.76002e-06
0.00183322
-1.23704e-05
-8.76002e-06
0.00183322
-8.54209e-06
0.00183322
1.29463e-05
-1.15196e-05
0.00272091
2.97087e-12
-1.17402e-05
0.00272091
-1.29463e-05
-1.17402e-05
0.00272091
-1.15196e-05
0.00272091
8.76989e-06
-3.49463e-06
0.00282172
6.86676e-12
-3.5998e-06
0.00282172
-8.76988e-06
-3.5998e-06
0.00282172
-3.49463e-06
0.00282172
-3.4071e-06
0.00146346
3.93129e-12
0.00146346
3.40711e-06
0.00146346
0.00146346
4.68423e-06
-2.63928e-06
0.000641151
2.21483e-14
-2.67465e-06
0.000641151
-4.68423e-06
-2.67465e-06
0.000641151
-2.63928e-06
0.000641151
1.1971e-05
-8.18081e-06
0.00185091
-6.10156e-13
-8.38944e-06
0.00185091
-1.1971e-05
-8.38944e-06
0.00185091
-8.18081e-06
0.00185091
1.22467e-05
-1.08098e-05
0.00273578
9.54315e-13
-1.10165e-05
0.00273578
-1.22467e-05
-1.10165e-05
0.00273578
-1.08098e-05
0.00273578
8.09787e-06
-3.13456e-06
0.00282204
3.86316e-12
-3.22995e-06
0.00282203
-8.09786e-06
-3.22995e-06
0.00282203
-3.13456e-06
0.00282204
-3.28743e-06
0.00145695
2.84175e-12
0.00145695
3.28743e-06
0.00145695
0.00145695
4.25808e-06
-2.37878e-06
0.00064782
6.78198e-15
-2.4105e-06
0.00064782
-4.25808e-06
-2.4105e-06
0.00064782
-2.37878e-06
0.00064782
1.07242e-05
-7.29573e-06
0.0018667
-2.87532e-13
-7.4819e-06
0.0018667
-1.07242e-05
-7.4819e-06
0.0018667
-7.29573e-06
0.0018667
1.08711e-05
-9.61308e-06
0.00274897
1.70214e-13
-9.79673e-06
0.00274897
-1.08711e-05
-9.79673e-06
0.00274897
-9.61308e-06
0.00274897
7.24122e-06
-2.69291e-06
0.00282224
2.01056e-12
-2.77634e-06
0.00282225
-7.24121e-06
-2.77634e-06
0.00282225
-2.69291e-06
0.00282224
-3.04657e-06
0.0014511
1.78507e-12
0.00145112
3.04657e-06
0.00145112
0.0014511
4.1557e-06
-2.33644e-06
0.000654343
6.03281e-15
-2.36771e-06
0.000654343
-4.1557e-06
-2.36771e-06
0.000654343
-2.33644e-06
0.000654343
1.05765e-05
-7.13314e-06
0.00188223
-1.23741e-13
-7.31504e-06
0.00188223
-1.05765e-05
-7.31504e-06
0.00188223
-7.13314e-06
0.00188223
1.04914e-05
-9.2025e-06
0.00276153
-7.67349e-14
-9.37843e-06
0.00276152
-1.04914e-05
-9.37843e-06
0.00276152
-9.2025e-06
0.00276153
6.75703e-06
-2.48394e-06
0.00282222
1.02051e-12
-2.56161e-06
0.00282219
-6.75703e-06
-2.56161e-06
0.00282219
-2.48394e-06
0.00282222
-3.03241e-06
0.00144556
1.03065e-12
0.00144553
3.03241e-06
0.00144553
0.00144556
3.75069e-06
-2.07754e-06
0.000660199
1.82128e-15
-2.10512e-06
0.000660199
-3.75069e-06
-2.10512e-06
0.000660199
-2.07754e-06
0.000660199
9.31089e-06
-6.24426e-06
0.00189583
-4.8483e-14
-6.4036e-06
0.00189584
-9.31089e-06
-6.4036e-06
0.00189584
-6.24426e-06
0.00189583
9.16874e-06
-8.05885e-06
0.00277248
-1.19275e-13
-8.21224e-06
0.0027725
-9.16874e-06
-8.21224e-06
0.0027725
-8.05885e-06
0.00277248
6.07099e-06
-2.10491e-06
0.00282218
4.49378e-13
-2.17158e-06
0.00282222
-6.07099e-06
-2.17158e-06
0.00282222
-2.10491e-06
0.00282218
-2.61697e-06
0.00144067
5.60356e-13
0.00144074
2.61697e-06
0.00144074
0.00144067
3.67645e-06
-2.07928e-06
0.000665984
1.37666e-15
-2.10745e-06
0.000665983
-3.67645e-06
-2.10745e-06
0.000665983
-2.07928e-06
0.000665984
9.45129e-06
-6.30428e-06
0.00190965
-1.49346e-14
-6.46486e-06
0.00190965
-9.45129e-06
-6.46486e-06
0.00190965
-6.30428e-06
0.00190965
9.09511e-06
-7.98321e-06
0.00278331
-1.02024e-13
-8.13644e-06
0.00278327
-9.09511e-06
-8.13644e-06
0.00278327
-7.98321e-06
0.00278331
5.78492e-06
-2.19429e-06
0.0028222
2.15491e-13
-2.26211e-06
0.00282213
-5.78492e-06
-2.26211e-06
0.00282213
-2.19429e-06
0.0028222
-2.79232e-06
0.00143582
2.86442e-13
0.00143569
2.79232e-06
0.00143569
0.00143582
2.94229e-06
-1.72373e-06
1.06985e-15
-1.74776e-06
-2.94229e-06
-1.74776e-06
-1.72373e-06
8.0588e-06
-5.27456e-06
-1.37982e-15
-5.40855e-06
-8.0588e-06
-5.40855e-06
-5.27456e-06
7.55497e-06
-6.52588e-06
-5.56663e-14
-6.65145e-06
-7.55497e-06
-6.65145e-06
-6.52588e-06
4.92376e-06
-2.05077e-06
7.1504e-14
-2.10845e-06
-4.92376e-06
-2.10845e-06
-2.05077e-06
-1.59435e-06
1.2217e-13
1.59435e-06
)
;

boundaryField
{
    inlet
    {
        type            calculated;
        value           nonuniform List<scalar> 
20
(
-0.000245338
-0.000736015
-0.00122669
-0.00171737
-0.00220805
-0.000245338
-0.000736015
-0.00122669
-0.00171737
-0.00220805
-0.000245338
-0.000736015
-0.00122669
-0.00171737
-0.00220805
-0.000245338
-0.000736015
-0.00122669
-0.00171737
-0.00220805
)
;
    }
    outlet
    {
        type            calculated;
        value           nonuniform List<scalar> 
20
(
0.000670673
0.00192137
0.00279207
0.00282252
0.00143198
0.000670673
0.00192137
0.00279206
0.00282251
0.00143198
0.000670673
0.00192137
0.00279206
0.00282251
0.00143198
0.000670673
0.00192137
0.00279207
0.00282252
0.00143198
)
;
    }
    wall
    {
        type            calculated;
        value           uniform 0;
    }
    back
    {
        type            wedge;
        value           nonuniform List<scalar> 
125
(
-5.52278e-05
-0.00016591
-0.000249268
-0.000451055
-0.000255242
-6.06129e-05
-0.000183232
-0.000269939
-0.000421721
-0.00018759
-4.63213e-05
-0.000142638
-0.000212005
-0.000311273
-0.00010578
-4.59878e-05
-0.000135384
-0.000189576
-0.000251731
-6.22517e-05
-3.3542e-05
-9.95228e-05
-0.000140964
-0.000179418
-2.57574e-05
-3.21536e-05
-9.17541e-05
-0.00012481
-0.000145542
-1.45749e-05
-2.61715e-05
-7.45153e-05
-0.000100776
-0.000109847
1.56491e-07
-2.42249e-05
-6.74799e-05
-8.86583e-05
-9.00137e-05
1.54042e-06
-2.12511e-05
-5.8772e-05
-7.58316e-05
-7.20552e-05
5.96771e-06
-1.951e-05
-5.3274e-05
-6.69668e-05
-5.99275e-05
6.87333e-06
-1.76378e-05
-4.77767e-05
-5.879e-05
-4.98415e-05
7.97555e-06
-1.63479e-05
-4.38798e-05
-5.25928e-05
-4.25198e-05
8.31881e-06
-1.49277e-05
-3.97768e-05
-4.66966e-05
-3.6218e-05
8.47309e-06
-1.39989e-05
-3.70274e-05
-4.23468e-05
-3.16975e-05
8.35957e-06
-1.28254e-05
-3.36953e-05
-3.783e-05
-2.74753e-05
8.19038e-06
-1.21536e-05
-3.17473e-05
-3.47488e-05
-2.45763e-05
7.90715e-06
-1.11327e-05
-2.88731e-05
-3.11193e-05
-2.15811e-05
7.59978e-06
-1.06533e-05
-2.75394e-05
-2.89676e-05
-1.96515e-05
7.29389e-06
-9.73104e-06
-2.49231e-05
-2.59007e-05
-1.74232e-05
6.90932e-06
-9.40355e-06
-2.4115e-05
-2.44893e-05
-1.60926e-05
6.66829e-06
-8.54814e-06
-2.16021e-05
-2.17371e-05
-1.4362e-05
6.19514e-06
-8.34251e-06
-2.1306e-05
-2.09886e-05
-1.34536e-05
6.09143e-06
-7.52903e-06
-1.87482e-05
-1.83062e-05
-1.19816e-05
5.40662e-06
-7.38239e-06
-1.90451e-05
-1.82425e-05
-1.15928e-05
5.44749e-06
-5.90724e-06
-1.62214e-05
-1.50592e-05
-9.72368e-06
3.37912e-06
)
;
    }
    front
    {
        type            wedge;
        value           nonuniform List<scalar> 
125
(
-5.52278e-05
-0.00016591
-0.000249268
-0.000451055
-0.000255242
-6.06129e-05
-0.000183232
-0.000269939
-0.000421722
-0.000187591
-4.63213e-05
-0.000142638
-0.000212005
-0.000311272
-0.000105779
-4.59878e-05
-0.000135384
-0.000189576
-0.000251732
-6.22537e-05
-3.3542e-05
-9.95229e-05
-0.000140964
-0.000179416
-2.57525e-05
-3.21536e-05
-9.17539e-05
-0.00012481
-0.000145545
-1.45833e-05
-2.61715e-05
-7.45158e-05
-0.000100776
-0.000109841
1.58718e-07
-2.42249e-05
-6.74798e-05
-8.86642e-05
-9.00412e-05
1.3236e-06
-2.12511e-05
-5.87713e-05
-7.58332e-05
-7.20704e-05
5.9072e-06
-1.95101e-05
-5.32734e-05
-6.69659e-05
-5.99336e-05
6.85548e-06
-1.76378e-05
-4.77765e-05
-5.87889e-05
-4.9844e-05
7.96913e-06
-1.63479e-05
-4.38797e-05
-5.2592e-05
-4.25207e-05
8.31641e-06
-1.49277e-05
-3.97768e-05
-4.66961e-05
-3.62183e-05
8.47218e-06
-1.39989e-05
-3.70274e-05
-4.23465e-05
-3.16976e-05
8.35924e-06
-1.28254e-05
-3.36953e-05
-3.78299e-05
-2.74753e-05
8.19027e-06
-1.21536e-05
-3.17473e-05
-3.47487e-05
-2.45763e-05
7.90712e-06
-1.11327e-05
-2.88731e-05
-3.11193e-05
-2.15811e-05
7.59978e-06
-1.06533e-05
-2.75394e-05
-2.89676e-05
-1.96515e-05
7.2939e-06
-9.73104e-06
-2.49231e-05
-2.59007e-05
-1.74232e-05
6.90932e-06
-9.40355e-06
-2.4115e-05
-2.44893e-05
-1.60926e-05
6.6683e-06
-8.54814e-06
-2.16021e-05
-2.17371e-05
-1.4362e-05
6.19515e-06
-8.34251e-06
-2.1306e-05
-2.09886e-05
-1.34536e-05
6.09143e-06
-7.52903e-06
-1.87482e-05
-1.83062e-05
-1.19816e-05
5.40662e-06
-7.38239e-06
-1.90451e-05
-1.82425e-05
-1.15928e-05
5.44749e-06
-5.90724e-06
-1.62214e-05
-1.50592e-05
-9.72368e-06
3.37912e-06
)
;
    }
    axis
    {
        type            empty;
        value           nonuniform 0();
    }
}


// ************************************************************************* //
