/*--------------------------------*- C++ -*----------------------------------*\
  =========                 |
  \\      /  F ield         | OpenFOAM: The Open Source CFD Toolbox
   \\    /   O peration     | Website:  https://openfoam.org
    \\  /    A nd           | Version:  7
     \\/     M anipulation  |
\*---------------------------------------------------------------------------*/
FoamFile
{
    version     2.0;
    format      ascii;
    class       volVectorField;
    location    "7.5";
    object      U;
}
// * * * * * * * * * * * * * * * * * * * * * * * * * * * * * * * * * * * * * //

dimensions      [0 1 -1 0 0 0 0];

internalField   nonuniform List<vector> 
500
(
(0.0027853 -0.00965592 1.03425)
(0.000930798 -0.0100208 1.03425)
(-0.000930798 -0.0100208 1.03425)
(-0.0027853 -0.00965592 1.03425)
(0.00838606 -0.0300209 1.03264)
(0.00278484 -0.0311116 1.03265)
(-0.00278484 -0.0311116 1.03265)
(-0.00838606 -0.0300209 1.03264)
(0.0126202 -0.0463424 1.03675)
(0.00419174 -0.0479148 1.03676)
(-0.00419175 -0.0479148 1.03676)
(-0.0126202 -0.0463424 1.03675)
(0.0229489 -0.0867474 1.03529)
(0.00777358 -0.0895108 1.03525)
(-0.00777358 -0.0895108 1.03525)
(-0.0229489 -0.0867474 1.03529)
(0.0130263 -0.0502397 0.896589)
(0.00459877 -0.0517368 0.896505)
(-0.00459877 -0.0517368 0.896505)
(-0.0130263 -0.0502397 0.896589)
(0.00305603 -0.0105 1.33376)
(0.00102377 -0.0109003 1.33376)
(-0.00102377 -0.0109003 1.33376)
(-0.00305603 -0.0105 1.33376)
(0.00922952 -0.0314105 1.34054)
(0.00310145 -0.0326203 1.34054)
(-0.00310145 -0.0326203 1.34054)
(-0.00922952 -0.0314105 1.34054)
(0.0135507 -0.0449201 1.35243)
(0.00457853 -0.0467048 1.35243)
(-0.00457853 -0.0467048 1.35243)
(-0.0135507 -0.0449201 1.35243)
(0.0211576 -0.0703848 1.31243)
(0.00714459 -0.073153 1.31234)
(-0.0071446 -0.073153 1.31234)
(-0.0211576 -0.0703848 1.31243)
(0.00942761 -0.0298323 0.943726)
(0.0032621 -0.0310279 0.943579)
(-0.00326213 -0.0310279 0.943579)
(-0.00942764 -0.0298323 0.943726)
(0.00233072 -0.00803779 1.43646)
(0.000779216 -0.00834394 1.43646)
(-0.000779216 -0.00834394 1.43646)
(-0.00233072 -0.00803779 1.43646)
(0.00712721 -0.0246494 1.44565)
(0.00237243 -0.0255931 1.44565)
(-0.00237243 -0.0255931 1.44565)
(-0.00712721 -0.0246494 1.44565)
(0.0105291 -0.0357994 1.44283)
(0.00349934 -0.0372062 1.44283)
(-0.00349935 -0.0372062 1.44283)
(-0.0105291 -0.0357994 1.44283)
(0.0154873 -0.0520085 1.34642)
(0.00516313 -0.0540584 1.34638)
(-0.00516311 -0.0540584 1.34638)
(-0.0154872 -0.0520085 1.34642)
(0.00524985 -0.0165474 0.828478)
(0.00176692 -0.0172297 0.828417)
(-0.00176687 -0.0172297 0.828417)
(-0.0052498 -0.0165474 0.828478)
(0.00231799 -0.00796657 1.64011)
(0.000776367 -0.0082703 1.64011)
(-0.000776367 -0.0082703 1.64011)
(-0.00231799 -0.00796657 1.64011)
(0.00681158 -0.0231484 1.64616)
(0.00228799 -0.0240417 1.64616)
(-0.00228799 -0.0240417 1.64616)
(-0.00681158 -0.0231484 1.64616)
(0.00951071 -0.0312016 1.62694)
(0.00322014 -0.0324549 1.62694)
(-0.00322013 -0.0324549 1.62694)
(-0.0095107 -0.0312016 1.62694)
(0.0126225 -0.0411409 1.47739)
(0.00427797 -0.0428055 1.47735)
(-0.00427801 -0.0428055 1.47735)
(-0.0126225 -0.0411409 1.47739)
(0.00310051 -0.00843175 0.84011)
(0.00109279 -0.00883894 0.840061)
(-0.0010929 -0.00883893 0.840061)
(-0.00310061 -0.00843173 0.84011)
(0.00168832 -0.00581558 1.73911)
(0.000564744 -0.00603723 1.73911)
(-0.000564743 -0.00603723 1.73911)
(-0.00168832 -0.00581558 1.73911)
(0.00497658 -0.0171041 1.74304)
(0.00166035 -0.0177624 1.74304)
(-0.00166036 -0.0177624 1.74304)
(-0.00497658 -0.0171041 1.74304)
(0.00700071 -0.0236854 1.70444)
(0.00233051 -0.0246206 1.70443)
(-0.00233054 -0.0246206 1.70443)
(-0.00700073 -0.0236854 1.70444)
(0.00891947 -0.0300437 1.50223)
(0.0029678 -0.0312321 1.50219)
(-0.00296772 -0.0312322 1.50219)
(-0.00891939 -0.0300438 1.50223)
(0.00126357 -0.00373865 0.781899)
(0.000401174 -0.00391947 0.781862)
(-0.000400925 -0.00391949 0.781862)
(-0.00126333 -0.0037387 0.781899)
(0.00162038 -0.00557527 1.86011)
(0.000542502 -0.00578765 1.86011)
(-0.000542502 -0.00578765 1.86011)
(-0.00162038 -0.00557527 1.86011)
(0.00461274 -0.0157629 1.858)
(0.00154624 -0.016368 1.858)
(-0.00154623 -0.016368 1.858)
(-0.00461273 -0.0157629 1.858)
(0.0062631 -0.020783 1.80141)
(0.0021148 -0.0216051 1.80141)
(-0.00211477 -0.0216051 1.80141)
(-0.00626307 -0.020783 1.80141)
(0.00730865 -0.0239439 1.55499)
(0.00247987 -0.0249049 1.55496)
(-0.00248003 -0.0249049 1.55496)
(-0.00730881 -0.0239438 1.55499)
(0.000720136 -0.00108685 0.776456)
(0.000271319 -0.00118934 0.776426)
(-0.000271782 -0.00118931 0.776426)
(-0.000720558 -0.00108675 0.776456)
(0.00131813 -0.00453899 1.94903)
(0.000441088 -0.00471189 1.94903)
(-0.000441088 -0.00471189 1.94903)
(-0.00131813 -0.00453899 1.94903)
(0.00373658 -0.0128286 1.94105)
(0.0012489 -0.0133207 1.94104)
(-0.00124893 -0.0133207 1.94104)
(-0.0037366 -0.0128286 1.94105)
(0.0050252 -0.0169391 1.86463)
(0.00168259 -0.0176044 1.86462)
(-0.00168261 -0.0176044 1.86462)
(-0.00502521 -0.0169391 1.86463)
(0.00547532 -0.0184531 1.57507)
(0.00183078 -0.0191865 1.57504)
(-0.00183053 -0.0191865 1.57504)
(-0.00547505 -0.0184533 1.57507)
(-9.74292e-06 0.000203735 0.749257)
(-3.27217e-05 0.0001785 0.749231)
(3.28853e-05 0.000178396 0.74923)
(9.86442e-06 0.000203403 0.749256)
(0.00122067 -0.00420287 2.03051)
(0.00040858 -0.00436289 2.03051)
(-0.000408579 -0.00436289 2.03051)
(-0.00122067 -0.00420287 2.03051)
(0.00339052 -0.0116351 2.01621)
(0.00113482 -0.0120801 2.01621)
(-0.00113481 -0.0120801 2.01621)
(-0.00339051 -0.0116351 2.01621)
(0.00444629 -0.0149379 1.9221)
(0.00149556 -0.0155216 1.9221)
(-0.00149586 -0.0155215 1.9221)
(-0.00444659 -0.0149378 1.9221)
(0.00451948 -0.0150533 1.59588)
(0.00152642 -0.015649 1.59586)
(-0.00152769 -0.015649 1.59586)
(-0.00452084 -0.0150534 1.59588)
(-8.05799e-05 0.0010136 0.737685)
(-2.1095e-05 0.00101307 0.73767)
(1.00088e-05 0.0010137 0.73767)
(6.94317e-05 0.00101548 0.737685)
(0.00107068 -0.00368718 2.10626)
(0.000358333 -0.00382757 2.10626)
(-0.000358333 -0.00382757 2.10626)
(-0.00107068 -0.00368718 2.10626)
(0.00295139 -0.010141 2.0845)
(0.000987171 -0.0105288 2.0845)
(-0.000987132 -0.0105288 2.0845)
(-0.00295135 -0.010141 2.0845)
(0.00379805 -0.0128206 1.97079)
(0.00127474 -0.0133203 1.97078)
(-0.0012748 -0.0133203 1.97078)
(-0.00379811 -0.0128205 1.97079)
(0.00361106 -0.0121611 1.60939)
(0.00121325 -0.0126417 1.60937)
(-0.00121393 -0.0126416 1.60937)
(-0.00361178 -0.0121609 1.60939)
(-0.000307286 0.00141239 0.724168)
(-0.00011372 0.00143514 0.724152)
(0.000110577 0.00143544 0.724152)
(0.000304232 0.00141332 0.724169)
(0.000983103 -0.00338588 2.16814)
(0.000329038 -0.00351475 2.16814)
(-0.000329039 -0.00351475 2.16814)
(-0.000983103 -0.00338588 2.16814)
(0.00267677 -0.00920374 2.14012)
(0.00089548 -0.00955507 2.14012)
(-0.000895453 -0.00955507 2.14012)
(-0.00267674 -0.00920375 2.14012)
(0.00335873 -0.0113506 2.0097)
(0.00112821 -0.0117915 2.00969)
(-0.00112815 -0.0117915 2.00969)
(-0.00335869 -0.0113506 2.0097)
(0.00300849 -0.0101361 1.61848)
(0.00101307 -0.0105347 1.61846)
(-0.00101334 -0.0105346 1.61846)
(-0.00300878 -0.010136 1.61848)
(-0.000351675 0.00164742 0.713838)
(-0.00011971 0.00168038 0.713827)
(0.00011877 0.00168049 0.713827)
(0.000350778 0.00164773 0.713838)
(0.000888767 -0.00306126 2.23233)
(0.000297458 -0.00317777 2.23233)
(-0.000297459 -0.00317777 2.23233)
(-0.000888767 -0.00306126 2.23233)
(0.00240068 -0.00825947 2.19626)
(0.000803017 -0.00857452 2.19626)
(-0.000803006 -0.00857453 2.19626)
(-0.00240067 -0.00825947 2.19626)
(0.00294891 -0.0099839 2.04681)
(0.000990184 -0.0103709 2.0468)
(-0.000990124 -0.0103709 2.0468)
(-0.00294885 -0.00998391 2.04681)
(0.00250245 -0.00846164 1.62644)
(0.000842101 -0.00879402 1.62643)
(-0.000842217 -0.008794 1.62643)
(-0.00250257 -0.00846159 1.62644)
(-0.000407456 0.00174613 0.705156)
(-0.00014103 0.00178599 0.705146)
(0.000140691 0.00178603 0.705146)
(0.000407133 0.00174624 0.705156)
(0.000823818 -0.00283772 2.28191)
(0.000275725 -0.00294571 2.28191)
(-0.000275725 -0.00294571 2.28191)
(-0.000823818 -0.00283772 2.28191)
(0.00220535 -0.00759155 2.23977)
(0.000737683 -0.00788086 2.23977)
(-0.00073768 -0.00788086 2.23977)
(-0.00220535 -0.00759155 2.23977)
(0.00263922 -0.00894563 2.07499)
(0.000886289 -0.00929161 2.07499)
(-0.000886246 -0.00929162 2.07499)
(-0.00263917 -0.00894564 2.07499)
(0.00213625 -0.00723544 1.63058)
(0.000719372 -0.00751903 1.63057)
(-0.000719415 -0.00751902 1.63057)
(-0.0021363 -0.00723541 1.63058)
(-0.000424266 0.00178436 0.697321)
(-0.000145476 0.00182762 0.697313)
(0.00014535 0.00182763 0.697313)
(0.000424145 0.0017844 0.697321)
(0.000752262 -0.00259144 2.33759)
(0.000251773 -0.00269004 2.33759)
(-0.000251773 -0.00269004 2.33759)
(-0.000752262 -0.00259144 2.33759)
(0.00199935 -0.00688562 2.28721)
(0.000668741 -0.00714786 2.28721)
(-0.000668742 -0.00714786 2.28721)
(-0.00199935 -0.00688562 2.28721)
(0.00234372 -0.00795423 2.10418)
(0.000786922 -0.00826135 2.10418)
(-0.000786896 -0.00826135 2.10418)
(-0.0023437 -0.00795424 2.10418)
(0.00182018 -0.00617865 1.63535)
(0.000612921 -0.00642058 1.63534)
(-0.000612934 -0.00642058 1.63534)
(-0.00182019 -0.00617864 1.63535)
(-0.000431805 0.00176302 0.690981)
(-0.000148587 0.00180779 0.690974)
(0.000148539 0.0018078 0.690974)
(0.00043176 0.00176304 0.690981)
(0.000705489 -0.00243039 2.37788)
(0.000236122 -0.00252285 2.37788)
(-0.000236122 -0.00252285 2.37788)
(-0.000705489 -0.00243039 2.37788)
(0.00186145 -0.00641316 2.32178)
(0.000622624 -0.00665725 2.32178)
(-0.000622625 -0.00665725 2.32178)
(-0.00186145 -0.00641316 2.32178)
(0.00212603 -0.0072201 2.12508)
(0.000713925 -0.00749849 2.12508)
(-0.00071391 -0.00749849 2.12508)
(-0.00212602 -0.00722011 2.12508)
(0.0015938 -0.00541621 1.63694)
(0.000537056 -0.00562796 1.63693)
(-0.000537058 -0.00562796 1.63693)
(-0.0015938 -0.0054162 1.63694)
(-0.000425665 0.00172876 0.684941)
(-0.000145709 0.00177368 0.684935)
(0.000145691 0.00177369 0.684935)
(0.000425648 0.00172876 0.684941)
(0.000646359 -0.00222684 2.42746)
(0.000216329 -0.00231156 2.42746)
(-0.000216329 -0.00231156 2.42746)
(-0.000646359 -0.00222684 2.42746)
(0.00169406 -0.00583855 2.36308)
(0.000566613 -0.00606066 2.36307)
(-0.000566614 -0.00606066 2.36307)
(-0.00169406 -0.00583855 2.36308)
(0.00189942 -0.00645691 2.14894)
(0.00063772 -0.00670556 2.14893)
(-0.000637712 -0.00670556 2.14893)
(-0.00189942 -0.00645691 2.14894)
(0.00138177 -0.00470448 1.64004)
(0.000465558 -0.00488834 1.64003)
(-0.000465557 -0.00488834 1.64003)
(-0.00138177 -0.00470448 1.64004)
(-0.000416925 0.00166049 0.680106)
(-0.000143313 0.00170475 0.680101)
(0.000143308 0.00170475 0.680101)
(0.000416919 0.00166049 0.680106)
(0.000612524 -0.00211029 2.46009)
(0.000205008 -0.00219057 2.46009)
(-0.000205008 -0.00219057 2.46009)
(-0.000612524 -0.00211029 2.46009)
(0.00159634 -0.00550334 2.3905)
(0.00053394 -0.00571259 2.3905)
(-0.000533941 -0.00571259 2.3905)
(-0.00159634 -0.00550334 2.3905)
(0.00174516 -0.00593427 2.16454)
(0.000586044 -0.00616259 2.16453)
(-0.00058604 -0.00616259 2.16453)
(-0.00174516 -0.00593427 2.16454)
(0.00123651 -0.00421294 1.64022)
(0.000416916 -0.00437737 1.64021)
(-0.000416914 -0.00437737 1.64021)
(-0.00123651 -0.00421294 1.64022)
(-0.000402283 0.00160386 0.675281)
(-0.000137617 0.00164704 0.675277)
(0.000137616 0.00164704 0.675277)
(0.000402282 0.00160386 0.675281)
(0.000561079 -0.00193318 2.50528)
(0.000187787 -0.00200672 2.50528)
(-0.000187787 -0.00200672 2.50528)
(-0.000561079 -0.00193318 2.50528)
(0.00145188 -0.00500668 2.42745)
(0.000485605 -0.00519699 2.42745)
(-0.000485605 -0.00519699 2.42745)
(-0.00145188 -0.00500668 2.42745)
(0.00156291 -0.00531877 2.18473)
(0.000524742 -0.00552322 2.18473)
(-0.00052474 -0.00552322 2.18473)
(-0.00156291 -0.00531877 2.18473)
(0.00108594 -0.00370535 1.64243)
(0.000366097 -0.00384998 1.64243)
(-0.000366095 -0.00384998 1.64243)
(-0.00108594 -0.00370535 1.64243)
(-0.000386608 0.00151883 0.671474)
(-0.000132807 0.00156039 0.67147)
(0.000132807 0.00156039 0.67147)
(0.000386608 0.00151883 0.671474)
(0.000536937 -0.00184999 2.53127)
(0.00017971 -0.00192036 2.53127)
(-0.00017971 -0.00192036 2.53127)
(-0.000536937 -0.00184999 2.53127)
(0.00138498 -0.00477707 2.44881)
(0.000463241 -0.00495857 2.44881)
(-0.000463241 -0.00495857 2.44881)
(-0.00138498 -0.00477707 2.44881)
(0.00145518 -0.00495274 2.19627)
(0.000488682 -0.005143 2.19627)
(-0.000488681 -0.005143 2.19627)
(-0.00145518 -0.00495274 2.19627)
(0.000989191 -0.00337782 1.64184)
(0.000333671 -0.00350948 1.64184)
(-0.000333669 -0.00350948 1.64184)
(-0.00098919 -0.00337782 1.64184)
(-0.0003709 0.00146091 0.667522)
(-0.00012691 0.00150109 0.667519)
(0.00012691 0.00150109 0.667519)
(0.0003709 0.00146091 0.667522)
(0.000490455 -0.00168995 2.57336)
(0.000164151 -0.00175423 2.57336)
(-0.000164151 -0.00175423 2.57336)
(-0.000490455 -0.00168995 2.57336)
(0.00125344 -0.00432421 2.48277)
(0.000419232 -0.00448847 2.48277)
(-0.000419233 -0.00448847 2.48277)
(-0.00125344 -0.00432421 2.48277)
(0.00130109 -0.00443085 2.21395)
(0.000436862 -0.00460094 2.21394)
(-0.000436861 -0.00460094 2.21394)
(-0.00130109 -0.00443085 2.21395)
(0.000877126 -0.00299687 1.64354)
(0.000295906 -0.00311376 1.64354)
(-0.000295905 -0.00311376 1.64354)
(-0.000877126 -0.00299687 1.64354)
(-0.000351327 0.00137074 0.664424)
(-0.000120545 0.00140881 0.664421)
(0.000120545 0.00140881 0.664421)
(0.000351327 0.00137074 0.664424)
(0.000473962 -0.00163309 2.59332)
(0.000158633 -0.0016952 2.59332)
(-0.000158633 -0.0016952 2.59332)
(-0.000473962 -0.00163309 2.59332)
(0.00121292 -0.00418529 2.49871)
(0.000405684 -0.00434422 2.49871)
(-0.000405684 -0.00434422 2.49871)
(-0.00121292 -0.00418529 2.49871)
(0.00123041 -0.00419102 2.22223)
(0.000413193 -0.00435183 2.22223)
(-0.000413193 -0.00435183 2.22223)
(-0.00123041 -0.00419102 2.22223)
(0.00081029 -0.00277358 1.64258)
(0.000273331 -0.00288159 1.64257)
(-0.000273331 -0.00288159 1.64257)
(-0.00081029 -0.00277358 1.64258)
(-0.000339004 0.00132062 0.661162)
(-0.0001162 0.00135752 0.661159)
(0.0001162 0.00135752 0.661159)
(0.000339004 0.00132062 0.661162)
(0.000430853 -0.00148465 2.63335)
(0.000144204 -0.00154111 2.63335)
(-0.000144204 -0.00154111 2.63335)
(-0.000430853 -0.00148465 2.63335)
(0.00108657 -0.00374971 2.53083)
(0.000363426 -0.00389207 2.53083)
(-0.000363426 -0.00389207 2.53083)
(-0.00108657 -0.00374971 2.53083)
(0.00109216 -0.00372029 2.2382)
(0.000366778 -0.00386297 2.2382)
(-0.000366778 -0.00386297 2.2382)
(-0.00109216 -0.00372029 2.2382)
(0.000723384 -0.0024713 1.64389)
(0.000244345 -0.00256764 1.64389)
(-0.000244345 -0.00256764 1.64389)
(-0.000723384 -0.0024713 1.64389)
(-0.000314871 0.00122947 0.658517)
(-0.000107644 0.00126386 0.658514)
(0.000107645 0.00126386 0.658514)
(0.000314871 0.00122947 0.658517)
(0.000420488 -0.0014489 2.64768)
(0.000140735 -0.001504 2.64768)
(-0.000140735 -0.001504 2.64768)
(-0.000420488 -0.0014489 2.64768)
(0.00107172 -0.00369955 2.54164)
(0.000358441 -0.00383997 2.54164)
(-0.000358441 -0.00383997 2.54164)
(-0.00107172 -0.00369955 2.54164)
(0.00105455 -0.00359556 2.24373)
(0.00035405 -0.00373341 2.24373)
(-0.00035405 -0.00373341 2.24373)
(-0.00105455 -0.00359556 2.24373)
(0.000677414 -0.00232808 1.64286)
(0.000228252 -0.00241865 1.64285)
(-0.000228252 -0.00241865 1.64285)
(-0.000677413 -0.00232808 1.64286)
(-0.000309698 0.0011852 0.65591)
(-0.000106827 0.00121888 0.655908)
(0.000106827 0.00121888 0.655908)
(0.000309698 0.0011852 0.65591)
(0.0003795 -0.00130768 2.68653)
(0.000127019 -0.00135741 2.68653)
(-0.000127019 -0.00135741 2.68653)
(-0.0003795 -0.00130768 2.68653)
(0.000943192 -0.00325562 2.57301)
(0.000315496 -0.00337915 2.57301)
(-0.000315496 -0.00337915 2.57301)
(-0.000943192 -0.00325562 2.57301)
(0.000920069 -0.00313138 2.25865)
(0.000309181 -0.0032514 2.25865)
(-0.000309181 -0.0032514 2.25865)
(-0.000920069 -0.00313138 2.25865)
(0.000604029 -0.00205463 1.64377)
(0.000204752 -0.0021347 1.64377)
(-0.000204752 -0.0021347 1.64377)
(-0.000604029 -0.00205463 1.64377)
(-0.000274524 0.00109345 0.653386)
(-9.25741e-05 0.00112388 0.653384)
(9.25741e-05 0.00112388 0.653384)
(0.000274524 0.00109345 0.653386)
(0.000371987 -0.00128125 2.69542)
(0.0001245 -0.00133 2.69542)
(-0.0001245 -0.00133 2.69542)
(-0.000371987 -0.00128125 2.69542)
(0.000957993 -0.00330877 2.57863)
(0.000320357 -0.0034343 2.57863)
(-0.000320357 -0.0034343 2.57863)
(-0.000957993 -0.00330877 2.57863)
(0.000915927 -0.00312573 2.26167)
(0.000307226 -0.00324565 2.26167)
(-0.000307226 -0.00324565 2.26167)
(-0.000915927 -0.00312573 2.26167)
(0.000583168 -0.00201802 1.64299)
(0.000195737 -0.00209646 1.64299)
(-0.000195737 -0.00209646 1.64299)
(-0.000583168 -0.00201802 1.64299)
(-0.000277101 0.00100607 0.651707)
(-9.75796e-05 0.00103583 0.651705)
(9.75796e-05 0.00103583 0.651705)
(0.000277101 0.00100607 0.651707)
(0.000297612 -0.00102435 2.73367)
(9.9623e-05 -0.00106336 2.73367)
(-9.9623e-05 -0.00106336 2.73367)
(-0.000297612 -0.00102435 2.73367)
(0.000815734 -0.00281029 2.6105)
(0.00027296 -0.00291716 2.6105)
(-0.00027296 -0.00291716 2.6105)
(-0.000815734 -0.00281029 2.6105)
(0.000756141 -0.00255488 2.2761)
(0.000254408 -0.00265371 2.27609)
(-0.000254408 -0.00265371 2.27609)
(-0.000756141 -0.00255488 2.2761)
(0.000489652 -0.00165736 1.64352)
(0.000165827 -0.00172188 1.64351)
(-0.000165827 -0.00172188 1.64351)
(-0.000489652 -0.00165736 1.64352)
(-0.000171217 0.000699743 0.64853)
(-5.65024e-05 0.000719393 0.64853)
(5.65024e-05 0.000719393 0.64853)
(0.000171217 0.000699743 0.64853)
)
;

boundaryField
{
    inlet
    {
        type            uniformFixedValue;
        uniformValue    constant (0 0 1);
        value           uniform (0 0 1);
    }
    outlet
    {
        type            pressureInletOutletVelocity;
        value           nonuniform List<vector> 
20
(
(0.000297612 -0.00102435 2.73367)
(0.000815734 -0.00281029 2.6105)
(0.000756141 -0.00255488 2.2761)
(0.000489652 -0.00165736 1.64352)
(-0.000171217 0.000699743 0.64853)
(9.9623e-05 -0.00106336 2.73367)
(0.00027296 -0.00291716 2.6105)
(0.000254408 -0.00265371 2.27609)
(0.000165827 -0.00172188 1.64351)
(-5.65024e-05 0.000719393 0.64853)
(-9.9623e-05 -0.00106336 2.73367)
(-0.00027296 -0.00291716 2.6105)
(-0.000254408 -0.00265371 2.27609)
(-0.000165827 -0.00172188 1.64351)
(5.65024e-05 0.000719393 0.64853)
(-0.000297612 -0.00102435 2.73367)
(-0.000815734 -0.00281029 2.6105)
(-0.000756141 -0.00255488 2.2761)
(-0.000489652 -0.00165736 1.64352)
(0.000171217 0.000699743 0.64853)
)
;
    }
    wall
    {
        type            fixedValue;
        value           uniform (0 0 0);
    }
    back
    {
        type            wedge;
    }
    front
    {
        type            wedge;
    }
    axis
    {
        type            empty;
    }
}


// ************************************************************************* //
