/*--------------------------------*- C++ -*----------------------------------*\
  =========                 |
  \\      /  F ield         | OpenFOAM: The Open Source CFD Toolbox
   \\    /   O peration     | Website:  https://openfoam.org
    \\  /    A nd           | Version:  7
     \\/     M anipulation  |
\*---------------------------------------------------------------------------*/
FoamFile
{
    version     2.0;
    format      ascii;
    class       volScalarField;
    location    "10";
    object      p;
}
// * * * * * * * * * * * * * * * * * * * * * * * * * * * * * * * * * * * * * //

dimensions      [0 2 -2 0 0 0 0];

internalField   nonuniform List<scalar> 
48000
(
1.89963
1.89966
1.89964
1.89955
1.8994
1.89919
1.89892
1.8986
1.89821
1.89776
1.89725
1.89668
1.89605
1.89536
1.89461
1.8938
1.89294
1.89201
1.89102
1.88998
1.88888
1.88772
1.88651
1.88524
1.88391
1.88254
1.88111
1.87963
1.87811
1.87653
1.8749
1.87323
1.87152
1.86976
1.86796
1.86612
1.86424
1.86232
1.86036
1.85837
1.85634
1.85428
1.85219
1.85007
1.84792
1.84574
1.84354
1.84131
1.83906
1.83679
1.8345
1.83219
1.82985
1.82751
1.82514
1.82276
1.82037
1.81796
1.81554
1.81311
1.81068
1.80823
1.80577
1.80331
1.80084
1.79837
1.79589
1.7934
1.79092
1.78843
1.78594
1.78344
1.78095
1.77846
1.77597
1.77347
1.77098
1.7685
1.76601
1.76353
1.76105
1.75857
1.75609
1.75362
1.75116
1.7487
1.74624
1.74379
1.74135
1.73891
1.73647
1.73404
1.73162
1.72921
1.72679
1.72439
1.72199
1.7196
1.71722
1.71484
1.71247
1.7101
1.70774
1.70539
1.70304
1.7007
1.69837
1.69604
1.69372
1.69141
1.6891
1.6868
1.6845
1.68222
1.67993
1.67766
1.67538
1.67312
1.67086
1.6686
1.66636
1.66411
1.66187
1.65964
1.65741
1.65519
1.65297
1.65076
1.64855
1.64634
1.64414
1.64194
1.63975
1.63756
1.63538
1.6332
1.63102
1.62885
1.62668
1.62451
1.62234
1.62018
1.61802
1.61587
1.61372
1.61156
1.60942
1.60727
1.60513
1.60299
1.60085
1.59871
1.59657
1.59444
1.5923
1.59017
1.58804
1.58591
1.58379
1.58166
1.57953
1.57741
1.57529
1.57316
1.57104
1.56892
1.5668
1.56467
1.56255
1.56043
1.55831
1.55619
1.55407
1.55195
1.54983
1.54771
1.54558
1.54346
1.54134
1.53922
1.53709
1.53497
1.53284
1.53072
1.52859
1.52646
1.52433
1.52221
1.52007
1.51794
1.51581
1.51368
1.51154
1.5094
1.50727
1.50513
1.50299
1.50084
1.4987
1.49655
1.49441
1.49226
1.49011
1.48795
1.4858
1.48364
1.48148
1.47932
1.47716
1.475
1.47283
1.47066
1.46849
1.46632
1.46414
1.46196
1.45978
1.4576
1.45542
1.45323
1.45104
1.44885
1.44665
1.44445
1.44225
1.44005
1.43784
1.43564
1.43342
1.43121
1.42899
1.42677
1.42455
1.42233
1.4201
1.41786
1.41563
1.41339
1.41115
1.40891
1.40666
1.40441
1.40215
1.3999
1.39764
1.39537
1.3931
1.39083
1.38856
1.38628
1.384
1.38171
1.37942
1.37713
1.37483
1.37253
1.37023
1.36792
1.36561
1.36329
1.36097
1.35865
1.35632
1.35399
1.35165
1.34931
1.34697
1.34462
1.34227
1.33991
1.33755
1.33518
1.33281
1.33044
1.32806
1.32568
1.32329
1.3209
1.3185
1.3161
1.31369
1.31128
1.30886
1.30644
1.30402
1.30159
1.29915
1.29671
1.29426
1.29181
1.28936
1.2869
1.28443
1.28196
1.27948
1.277
1.27451
1.27202
1.26952
1.26702
1.26451
1.26199
1.25947
1.25695
1.25441
1.25188
1.24933
1.24678
1.24423
1.24167
1.2391
1.23653
1.23395
1.23136
1.22877
1.22617
1.22357
1.22096
1.21834
1.21572
1.21309
1.21045
1.20781
1.20516
1.2025
1.19984
1.19717
1.19449
1.19181
1.18912
1.18642
1.18372
1.181
1.17829
1.17556
1.17283
1.17009
1.16734
1.16459
1.16182
1.15905
1.15628
1.15349
1.1507
1.1479
1.14509
1.14227
1.13945
1.13662
1.13378
1.13093
1.12808
1.12521
1.12234
1.11946
1.11657
1.11367
1.11077
1.10785
1.10493
1.102
1.09906
1.09611
1.09316
1.09019
1.08722
1.08423
1.08124
1.07824
1.07523
1.07221
1.06918
1.06614
1.06309
1.06003
1.05697
1.05389
1.0508
1.04771
1.0446
1.04149
1.03836
1.03523
1.03208
1.02893
1.02577
1.02259
1.01941
1.01621
1.013
1.00979
1.00656
1.00332
1.00008
0.996819
0.99355
0.99027
0.98698
0.983678
0.980366
0.977043
0.973708
0.970363
0.967006
0.963638
0.960259
0.956868
0.953466
0.950052
0.946627
0.94319
0.939741
0.936281
0.932809
0.929324
0.925828
0.92232
0.9188
0.915267
0.911722
0.908165
0.904596
0.901014
0.89742
0.893813
0.890193
0.886561
0.882916
0.879258
0.875587
0.871903
0.868207
0.864497
0.860774
0.857037
0.853288
0.849525
0.845748
0.841959
0.838155
0.834338
0.830507
0.826662
0.822804
0.818931
0.815045
0.811145
0.80723
0.803301
0.799358
0.795401
0.791429
0.787443
0.783442
0.779427
0.775397
0.771352
0.767292
0.763218
0.759128
0.755024
0.750904
0.746769
0.742619
0.738454
0.734273
0.730077
0.725865
0.721638
0.717395
0.713136
0.708862
0.704571
0.700265
0.695943
0.691604
0.68725
0.682879
0.678492
0.674088
0.669668
0.665232
0.660779
0.656309
0.651822
0.647319
0.642799
0.638262
0.633708
0.629136
0.624548
0.619942
0.615319
0.610679
0.606021
0.601346
0.596653
0.591942
0.587213
0.582467
0.577703
0.572921
0.56812
0.563302
0.558465
0.55361
0.548737
0.543845
0.538935
0.534006
0.529058
0.524092
0.519107
0.514103
0.509079
0.504037
0.498976
0.493895
0.488795
0.483676
0.478537
0.473378
0.4682
0.463002
0.457784
0.452547
0.447289
0.442011
0.436713
0.431395
0.426056
0.420697
0.415317
0.409917
0.404496
0.399054
0.393592
0.388108
0.382604
0.377078
0.371531
0.365963
0.360373
0.354762
0.349129
0.343474
0.337798
0.3321
0.32638
0.320638
0.314874
0.309088
0.303279
0.297448
0.291595
0.285719
0.27982
0.273899
0.267955
0.261988
0.255998
0.249985
0.243949
0.237889
0.231807
0.2257
0.219571
0.213417
0.20724
0.20104
0.194815
0.188566
0.182294
0.175997
0.169676
0.16333
0.15696
0.150566
0.144147
0.137703
0.131234
0.124741
0.118222
0.111679
0.10511
0.0985157
0.0918962
0.0852511
0.0785805
0.0718842
0.0651621
0.0584141
0.0516401
0.04484
0.0380138
0.0311612
0.0242823
0.0173768
0.0104448
0.00348607
1.90048
1.90051
1.90049
1.9004
1.90024
1.90003
1.89975
1.89942
1.89902
1.89857
1.89805
1.89747
1.89682
1.89612
1.89536
1.89453
1.89364
1.8927
1.89169
1.89063
1.88951
1.88833
1.88709
1.8858
1.88446
1.88306
1.88161
1.88011
1.87856
1.87696
1.87531
1.87362
1.87188
1.8701
1.86827
1.86641
1.8645
1.86256
1.86058
1.85857
1.85652
1.85444
1.85233
1.85019
1.84803
1.84583
1.84361
1.84137
1.8391
1.83681
1.8345
1.83218
1.82983
1.82747
1.82509
1.8227
1.8203
1.81788
1.81545
1.81301
1.81057
1.80811
1.80565
1.80318
1.8007
1.79822
1.79574
1.79325
1.79076
1.78826
1.78577
1.78327
1.78077
1.77828
1.77578
1.77329
1.7708
1.76831
1.76582
1.76333
1.76085
1.75838
1.7559
1.75343
1.75097
1.74851
1.74605
1.7436
1.74116
1.73872
1.73628
1.73386
1.73143
1.72902
1.72661
1.72421
1.72181
1.71942
1.71704
1.71466
1.71229
1.70993
1.70757
1.70522
1.70288
1.70054
1.69821
1.69588
1.69357
1.69125
1.68895
1.68665
1.68436
1.68207
1.67979
1.67751
1.67524
1.67298
1.67072
1.66847
1.66622
1.66398
1.66175
1.65952
1.65729
1.65507
1.65285
1.65064
1.64843
1.64623
1.64403
1.64184
1.63965
1.63746
1.63528
1.6331
1.63092
1.62875
1.62658
1.62441
1.62225
1.62009
1.61794
1.61578
1.61363
1.61148
1.60933
1.60719
1.60505
1.60291
1.60077
1.59863
1.5965
1.59436
1.59223
1.5901
1.58797
1.58585
1.58372
1.58159
1.57947
1.57735
1.57522
1.5731
1.57098
1.56886
1.56674
1.56462
1.5625
1.56038
1.55826
1.55614
1.55402
1.5519
1.54978
1.54766
1.54554
1.54341
1.54129
1.53917
1.53705
1.53492
1.5328
1.53067
1.52855
1.52642
1.52429
1.52217
1.52004
1.5179
1.51577
1.51364
1.5115
1.50937
1.50723
1.50509
1.50295
1.50081
1.49867
1.49652
1.49437
1.49222
1.49007
1.48792
1.48577
1.48361
1.48145
1.47929
1.47713
1.47497
1.4728
1.47063
1.46846
1.46629
1.46412
1.46194
1.45976
1.45758
1.45539
1.4532
1.45102
1.44882
1.44663
1.44443
1.44223
1.44003
1.43782
1.43562
1.4334
1.43119
1.42897
1.42675
1.42453
1.42231
1.42008
1.41785
1.41561
1.41337
1.41113
1.40889
1.40664
1.40439
1.40214
1.39988
1.39762
1.39535
1.39309
1.39082
1.38854
1.38626
1.38398
1.3817
1.37941
1.37712
1.37482
1.37252
1.37021
1.36791
1.3656
1.36328
1.36096
1.35864
1.35631
1.35398
1.35164
1.3493
1.34696
1.34461
1.34226
1.3399
1.33754
1.33517
1.3328
1.33043
1.32805
1.32567
1.32328
1.32089
1.31849
1.31609
1.31368
1.31127
1.30886
1.30643
1.30401
1.30158
1.29914
1.2967
1.29426
1.29181
1.28935
1.28689
1.28442
1.28195
1.27947
1.27699
1.27451
1.27201
1.26951
1.26701
1.2645
1.26199
1.25947
1.25694
1.25441
1.25187
1.24933
1.24678
1.24422
1.24166
1.23909
1.23652
1.23394
1.23136
1.22876
1.22617
1.22356
1.22095
1.21833
1.21571
1.21308
1.21044
1.2078
1.20515
1.2025
1.19983
1.19716
1.19449
1.1918
1.18911
1.18642
1.18371
1.181
1.17828
1.17556
1.17282
1.17008
1.16734
1.16458
1.16182
1.15905
1.15627
1.15349
1.15069
1.14789
1.14509
1.14227
1.13945
1.13662
1.13378
1.13093
1.12807
1.12521
1.12234
1.11946
1.11657
1.11367
1.11077
1.10785
1.10493
1.102
1.09906
1.09611
1.09315
1.09019
1.08721
1.08423
1.08124
1.07824
1.07522
1.0722
1.06918
1.06614
1.06309
1.06003
1.05697
1.05389
1.0508
1.04771
1.0446
1.04149
1.03836
1.03523
1.03208
1.02893
1.02576
1.02259
1.0194
1.01621
1.013
1.00979
1.00656
1.00332
1.00008
0.996818
0.993549
0.990269
0.986979
0.983677
0.980365
0.977042
0.973707
0.970362
0.967005
0.963637
0.960258
0.956867
0.953465
0.950051
0.946626
0.943189
0.93974
0.93628
0.932808
0.929323
0.925827
0.922319
0.918799
0.915266
0.911722
0.908165
0.904595
0.901013
0.897419
0.893812
0.890192
0.88656
0.882915
0.879257
0.875587
0.871903
0.868206
0.864496
0.860773
0.857037
0.853287
0.849524
0.845748
0.841958
0.838155
0.834337
0.830507
0.826662
0.822803
0.818931
0.815045
0.811144
0.80723
0.803301
0.799358
0.7954
0.791429
0.787442
0.783442
0.779426
0.775396
0.771351
0.767292
0.763217
0.759128
0.755023
0.750904
0.746769
0.742619
0.738454
0.734273
0.730077
0.725865
0.721638
0.717395
0.713136
0.708862
0.704571
0.700265
0.695943
0.691604
0.68725
0.682879
0.678492
0.674088
0.669668
0.665232
0.660779
0.656309
0.651822
0.647319
0.642799
0.638262
0.633708
0.629136
0.624548
0.619942
0.615319
0.610679
0.606021
0.601346
0.596652
0.591942
0.587213
0.582467
0.577703
0.57292
0.56812
0.563302
0.558465
0.55361
0.548737
0.543845
0.538935
0.534006
0.529058
0.524092
0.519107
0.514102
0.509079
0.504037
0.498976
0.493895
0.488795
0.483676
0.478537
0.473378
0.4682
0.463002
0.457784
0.452547
0.447289
0.442011
0.436713
0.431395
0.426056
0.420697
0.415317
0.409917
0.404496
0.399054
0.393592
0.388108
0.382604
0.377078
0.371531
0.365963
0.360373
0.354762
0.349129
0.343474
0.337798
0.3321
0.32638
0.320638
0.314874
0.309088
0.303279
0.297448
0.291595
0.285719
0.27982
0.273899
0.267955
0.261988
0.255998
0.249985
0.243949
0.237889
0.231807
0.2257
0.219571
0.213417
0.20724
0.20104
0.194815
0.188566
0.182294
0.175997
0.169676
0.16333
0.15696
0.150566
0.144147
0.137703
0.131234
0.124741
0.118222
0.111679
0.10511
0.0985157
0.0918962
0.0852511
0.0785805
0.0718842
0.0651621
0.0584141
0.0516401
0.04484
0.0380138
0.0311612
0.0242823
0.0173768
0.0104448
0.00348607
1.90209
1.90212
1.9021
1.902
1.90184
1.90162
1.90133
1.90099
1.90057
1.9001
1.89956
1.89895
1.89829
1.89756
1.89676
1.8959
1.89499
1.89401
1.89296
1.89186
1.8907
1.88948
1.88821
1.88687
1.88549
1.88404
1.88255
1.881
1.87941
1.87776
1.87607
1.87433
1.87255
1.87072
1.86886
1.86695
1.865
1.86302
1.861
1.85894
1.85686
1.85474
1.85259
1.85042
1.84821
1.84599
1.84373
1.84146
1.83916
1.83684
1.83451
1.83215
1.82978
1.8274
1.825
1.82258
1.82016
1.81772
1.81527
1.81282
1.81035
1.80788
1.8054
1.80292
1.80043
1.79794
1.79545
1.79295
1.79045
1.78794
1.78544
1.78294
1.78044
1.77794
1.77544
1.77294
1.77044
1.76795
1.76546
1.76297
1.76049
1.75801
1.75554
1.75307
1.7506
1.74814
1.74569
1.74324
1.74079
1.73836
1.73592
1.7335
1.73108
1.72867
1.72626
1.72386
1.72147
1.71908
1.7167
1.71433
1.71196
1.7096
1.70725
1.7049
1.70256
1.70023
1.6979
1.69558
1.69327
1.69096
1.68866
1.68637
1.68408
1.68179
1.67952
1.67725
1.67498
1.67272
1.67047
1.66822
1.66598
1.66374
1.66151
1.65928
1.65706
1.65484
1.65263
1.65042
1.64822
1.64602
1.64382
1.64163
1.63945
1.63726
1.63508
1.63291
1.63074
1.62857
1.6264
1.62424
1.62208
1.61992
1.61777
1.61562
1.61347
1.61132
1.60918
1.60704
1.6049
1.60276
1.60063
1.59849
1.59636
1.59423
1.5921
1.58997
1.58785
1.58572
1.5836
1.58147
1.57935
1.57723
1.57511
1.57299
1.57087
1.56875
1.56663
1.56451
1.56239
1.56027
1.55816
1.55604
1.55392
1.5518
1.54968
1.54756
1.54545
1.54333
1.54121
1.53908
1.53696
1.53484
1.53272
1.53059
1.52847
1.52634
1.52422
1.52209
1.51996
1.51783
1.5157
1.51357
1.51143
1.5093
1.50716
1.50503
1.50289
1.50075
1.4986
1.49646
1.49431
1.49216
1.49002
1.48786
1.48571
1.48356
1.4814
1.47924
1.47708
1.47492
1.47275
1.47058
1.46841
1.46624
1.46407
1.46189
1.45971
1.45753
1.45535
1.45316
1.45097
1.44878
1.44659
1.44439
1.44219
1.43999
1.43778
1.43558
1.43337
1.43115
1.42894
1.42672
1.4245
1.42227
1.42004
1.41781
1.41558
1.41334
1.4111
1.40886
1.40661
1.40436
1.40211
1.39985
1.39759
1.39532
1.39306
1.39079
1.38851
1.38624
1.38395
1.38167
1.37938
1.37709
1.37479
1.37249
1.37019
1.36788
1.36557
1.36326
1.36094
1.35861
1.35629
1.35395
1.35162
1.34928
1.34694
1.34459
1.34224
1.33988
1.33752
1.33515
1.33278
1.33041
1.32803
1.32565
1.32326
1.32087
1.31847
1.31607
1.31366
1.31125
1.30884
1.30642
1.30399
1.30156
1.29913
1.29669
1.29424
1.29179
1.28933
1.28687
1.28441
1.28194
1.27946
1.27698
1.27449
1.272
1.2695
1.267
1.26449
1.26197
1.25945
1.25693
1.2544
1.25186
1.24931
1.24677
1.24421
1.24165
1.23908
1.23651
1.23393
1.23134
1.22875
1.22616
1.22355
1.22094
1.21832
1.2157
1.21307
1.21044
1.20779
1.20514
1.20249
1.19982
1.19715
1.19448
1.1918
1.18911
1.18641
1.1837
1.18099
1.17827
1.17555
1.17282
1.17008
1.16733
1.16457
1.16181
1.15904
1.15627
1.15348
1.15069
1.14789
1.14508
1.14226
1.13944
1.13661
1.13377
1.13092
1.12807
1.1252
1.12233
1.11945
1.11656
1.11367
1.11076
1.10785
1.10493
1.10199
1.09905
1.09611
1.09315
1.09018
1.08721
1.08423
1.08123
1.07823
1.07522
1.0722
1.06917
1.06613
1.06309
1.06003
1.05696
1.05389
1.0508
1.0477
1.0446
1.04148
1.03836
1.03522
1.03208
1.02893
1.02576
1.02259
1.0194
1.01621
1.013
1.00978
1.00656
1.00332
1.00007
0.996815
0.993546
0.990267
0.986976
0.983675
0.980363
0.977039
0.973705
0.97036
0.967003
0.963635
0.960256
0.956865
0.953463
0.950049
0.946624
0.943187
0.939739
0.936278
0.932806
0.929322
0.925826
0.922318
0.918797
0.915265
0.91172
0.908163
0.904594
0.901012
0.897418
0.893811
0.890191
0.886559
0.882914
0.879256
0.875585
0.871902
0.868205
0.864495
0.860772
0.857036
0.853286
0.849523
0.845747
0.841957
0.838154
0.834337
0.830506
0.826661
0.822803
0.81893
0.815044
0.811143
0.807229
0.8033
0.799357
0.7954
0.791428
0.787442
0.783441
0.779426
0.775396
0.771351
0.767291
0.763217
0.759127
0.755023
0.750903
0.746768
0.742618
0.738453
0.734272
0.730076
0.725865
0.721637
0.717394
0.713136
0.708861
0.704571
0.700264
0.695942
0.691604
0.687249
0.682878
0.678491
0.674088
0.669668
0.665231
0.660778
0.656309
0.651822
0.647319
0.642799
0.638261
0.633707
0.629136
0.624548
0.619942
0.615319
0.610679
0.606021
0.601345
0.596652
0.591942
0.587213
0.582467
0.577703
0.57292
0.56812
0.563302
0.558465
0.55361
0.548737
0.543845
0.538935
0.534006
0.529058
0.524092
0.519106
0.514102
0.509079
0.504037
0.498976
0.493895
0.488795
0.483675
0.478537
0.473378
0.4682
0.463002
0.457784
0.452546
0.447289
0.442011
0.436713
0.431395
0.426056
0.420697
0.415317
0.409917
0.404496
0.399054
0.393592
0.388108
0.382604
0.377078
0.371531
0.365963
0.360373
0.354762
0.349129
0.343474
0.337798
0.3321
0.32638
0.320638
0.314874
0.309088
0.303279
0.297448
0.291595
0.285719
0.27982
0.273899
0.267955
0.261988
0.255998
0.249985
0.243949
0.237889
0.231807
0.2257
0.219571
0.213417
0.20724
0.20104
0.194815
0.188566
0.182294
0.175997
0.169676
0.16333
0.15696
0.150566
0.144147
0.137703
0.131234
0.124741
0.118222
0.111679
0.10511
0.0985157
0.0918962
0.0852511
0.0785805
0.0718842
0.0651621
0.0584141
0.0516401
0.04484
0.0380138
0.0311612
0.0242823
0.0173768
0.0104448
0.00348607
1.9044
1.90443
1.90441
1.90431
1.90414
1.9039
1.9036
1.90323
1.9028
1.90229
1.90172
1.90108
1.90038
1.89961
1.89877
1.89787
1.8969
1.89587
1.89477
1.89362
1.8924
1.89112
1.88978
1.88839
1.88694
1.88543
1.88388
1.88226
1.8806
1.87889
1.87714
1.87533
1.87349
1.8716
1.86967
1.8677
1.86569
1.86365
1.86157
1.85946
1.85732
1.85514
1.85294
1.85072
1.84846
1.84619
1.84389
1.84157
1.83923
1.83687
1.8345
1.8321
1.8297
1.82728
1.82484
1.8224
1.81995
1.81748
1.81501
1.81253
1.81004
1.80755
1.80505
1.80255
1.80004
1.79753
1.79502
1.79251
1.79
1.78749
1.78497
1.78246
1.77995
1.77744
1.77494
1.77243
1.76993
1.76744
1.76494
1.76245
1.75997
1.75749
1.75501
1.75254
1.75008
1.74762
1.74517
1.74272
1.74028
1.73784
1.73542
1.73299
1.73058
1.72817
1.72577
1.72337
1.72098
1.7186
1.71623
1.71386
1.7115
1.70914
1.70679
1.70445
1.70212
1.69979
1.69747
1.69516
1.69285
1.69055
1.68825
1.68596
1.68368
1.6814
1.67913
1.67687
1.67461
1.67236
1.67011
1.66787
1.66563
1.6634
1.66117
1.65895
1.65674
1.65452
1.65232
1.65011
1.64792
1.64572
1.64353
1.64135
1.63917
1.63699
1.63481
1.63264
1.63047
1.62831
1.62615
1.62399
1.62184
1.61968
1.61754
1.61539
1.61324
1.6111
1.60896
1.60683
1.60469
1.60256
1.60042
1.59829
1.59617
1.59404
1.59191
1.58979
1.58767
1.58554
1.58342
1.5813
1.57918
1.57706
1.57495
1.57283
1.57071
1.5686
1.56648
1.56436
1.56225
1.56013
1.55802
1.5559
1.55379
1.55167
1.54955
1.54744
1.54532
1.5432
1.54108
1.53897
1.53685
1.53473
1.5326
1.53048
1.52836
1.52624
1.52411
1.52199
1.51986
1.51773
1.5156
1.51347
1.51134
1.50921
1.50707
1.50493
1.5028
1.50066
1.49852
1.49637
1.49423
1.49208
1.48993
1.48778
1.48563
1.48348
1.48132
1.47917
1.47701
1.47484
1.47268
1.47051
1.46834
1.46617
1.464
1.46182
1.45965
1.45747
1.45528
1.4531
1.45091
1.44872
1.44653
1.44433
1.44213
1.43993
1.43773
1.43552
1.43331
1.4311
1.42888
1.42667
1.42445
1.42222
1.41999
1.41776
1.41553
1.41329
1.41105
1.40881
1.40656
1.40432
1.40206
1.39981
1.39755
1.39528
1.39302
1.39075
1.38847
1.3862
1.38392
1.38163
1.37934
1.37705
1.37476
1.37246
1.37015
1.36785
1.36554
1.36322
1.3609
1.35858
1.35625
1.35392
1.35159
1.34925
1.34691
1.34456
1.34221
1.33985
1.33749
1.33513
1.33276
1.33038
1.32801
1.32562
1.32324
1.32084
1.31845
1.31605
1.31364
1.31123
1.30881
1.30639
1.30397
1.30154
1.2991
1.29666
1.29422
1.29177
1.28931
1.28685
1.28439
1.28192
1.27944
1.27696
1.27447
1.27198
1.26948
1.26698
1.26447
1.26196
1.25944
1.25691
1.25438
1.25184
1.2493
1.24675
1.24419
1.24163
1.23907
1.23649
1.23392
1.23133
1.22874
1.22614
1.22354
1.22093
1.21831
1.21569
1.21306
1.21042
1.20778
1.20513
1.20248
1.19981
1.19714
1.19447
1.19178
1.18909
1.1864
1.18369
1.18098
1.17826
1.17554
1.17281
1.17007
1.16732
1.16456
1.1618
1.15903
1.15626
1.15347
1.15068
1.14788
1.14507
1.14226
1.13943
1.1366
1.13376
1.13092
1.12806
1.1252
1.12232
1.11944
1.11656
1.11366
1.11075
1.10784
1.10492
1.10199
1.09905
1.0961
1.09314
1.09018
1.0872
1.08422
1.08123
1.07823
1.07522
1.0722
1.06917
1.06613
1.06308
1.06002
1.05696
1.05388
1.05079
1.0477
1.04459
1.04148
1.03835
1.03522
1.03208
1.02892
1.02576
1.02258
1.0194
1.0162
1.013
1.00978
1.00655
1.00332
1.00007
0.996812
0.993543
0.990263
0.986973
0.983672
0.98036
0.977036
0.973702
0.970357
0.967
0.963632
0.960253
0.956862
0.95346
0.950047
0.946622
0.943185
0.939736
0.936276
0.932804
0.92932
0.925823
0.922315
0.918795
0.915263
0.911718
0.908161
0.904592
0.90101
0.897416
0.893809
0.890189
0.886557
0.882912
0.879255
0.875584
0.8719
0.868203
0.864494
0.860771
0.857034
0.853285
0.849522
0.845746
0.841956
0.838152
0.834335
0.830504
0.82666
0.822801
0.818929
0.815043
0.811142
0.807228
0.803299
0.799356
0.795399
0.791427
0.787441
0.78344
0.779425
0.775395
0.77135
0.76729
0.763216
0.759126
0.755022
0.750902
0.746768
0.742618
0.738452
0.734272
0.730076
0.725864
0.721637
0.717394
0.713135
0.708861
0.70457
0.700264
0.695942
0.691603
0.687249
0.682878
0.678491
0.674087
0.669667
0.665231
0.660778
0.656308
0.651822
0.647318
0.642798
0.638261
0.633707
0.629136
0.624547
0.619942
0.615319
0.610678
0.60602
0.601345
0.596652
0.591941
0.587213
0.582466
0.577702
0.57292
0.56812
0.563301
0.558465
0.55361
0.548736
0.543845
0.538934
0.534005
0.529058
0.524091
0.519106
0.514102
0.509079
0.504037
0.498975
0.493895
0.488795
0.483675
0.478536
0.473378
0.4682
0.463002
0.457784
0.452546
0.447289
0.442011
0.436713
0.431395
0.426056
0.420697
0.415317
0.409917
0.404496
0.399054
0.393592
0.388108
0.382604
0.377078
0.371531
0.365962
0.360373
0.354762
0.349129
0.343474
0.337798
0.3321
0.32638
0.320638
0.314874
0.309088
0.303279
0.297448
0.291595
0.285719
0.27982
0.273899
0.267955
0.261988
0.255998
0.249985
0.243949
0.237889
0.231807
0.2257
0.219571
0.213417
0.20724
0.20104
0.194815
0.188566
0.182294
0.175997
0.169676
0.16333
0.15696
0.150566
0.144147
0.137703
0.131234
0.124741
0.118222
0.111679
0.10511
0.0985157
0.0918962
0.0852511
0.0785805
0.0718842
0.0651621
0.0584141
0.0516401
0.04484
0.0380138
0.0311612
0.0242823
0.0173768
0.0104448
0.00348607
1.90736
1.9074
1.90737
1.90726
1.90708
1.90683
1.9065
1.90611
1.90564
1.9051
1.90449
1.90381
1.90305
1.90223
1.90133
1.90037
1.89934
1.89824
1.89707
1.89584
1.89455
1.89319
1.89178
1.8903
1.88877
1.88718
1.88554
1.88384
1.8821
1.8803
1.87846
1.87658
1.87465
1.87268
1.87067
1.86862
1.86653
1.86441
1.86226
1.86007
1.85786
1.85562
1.85335
1.85106
1.84875
1.84641
1.84405
1.84168
1.83928
1.83687
1.83445
1.83201
1.82956
1.8271
1.82462
1.82214
1.81965
1.81715
1.81465
1.81214
1.80962
1.8071
1.80458
1.80206
1.79953
1.797
1.79448
1.79195
1.78942
1.78689
1.78437
1.78185
1.77933
1.77681
1.7743
1.77179
1.76928
1.76678
1.76428
1.76179
1.7593
1.75682
1.75435
1.75188
1.74941
1.74696
1.74451
1.74206
1.73962
1.73719
1.73477
1.73235
1.72994
1.72754
1.72514
1.72275
1.72037
1.71799
1.71563
1.71326
1.71091
1.70856
1.70622
1.70389
1.70156
1.69924
1.69693
1.69462
1.69232
1.69003
1.68774
1.68546
1.68319
1.68092
1.67865
1.6764
1.67415
1.6719
1.66966
1.66743
1.6652
1.66297
1.66075
1.65854
1.65633
1.65413
1.65193
1.64973
1.64754
1.64535
1.64317
1.64099
1.63882
1.63664
1.63448
1.63231
1.63015
1.62799
1.62584
1.62369
1.62154
1.61939
1.61725
1.61511
1.61297
1.61083
1.60869
1.60656
1.60443
1.6023
1.60018
1.59805
1.59593
1.5938
1.59168
1.58956
1.58744
1.58533
1.58321
1.58109
1.57898
1.57686
1.57475
1.57263
1.57052
1.56841
1.5663
1.56418
1.56207
1.55996
1.55785
1.55573
1.55362
1.55151
1.54939
1.54728
1.54517
1.54305
1.54094
1.53882
1.5367
1.53459
1.53247
1.53035
1.52823
1.52611
1.52398
1.52186
1.51974
1.51761
1.51548
1.51335
1.51122
1.50909
1.50696
1.50482
1.50269
1.50055
1.49841
1.49627
1.49413
1.49198
1.48984
1.48769
1.48554
1.48339
1.48123
1.47908
1.47692
1.47476
1.47259
1.47043
1.46826
1.46609
1.46392
1.46175
1.45957
1.45739
1.45521
1.45302
1.45084
1.44865
1.44646
1.44426
1.44206
1.43986
1.43766
1.43546
1.43325
1.43104
1.42882
1.4266
1.42438
1.42216
1.41994
1.41771
1.41547
1.41324
1.411
1.40876
1.40651
1.40426
1.40201
1.39976
1.3975
1.39523
1.39297
1.3907
1.38843
1.38615
1.38387
1.38159
1.3793
1.37701
1.37471
1.37242
1.37011
1.36781
1.3655
1.36318
1.36086
1.35854
1.35622
1.35389
1.35155
1.34921
1.34687
1.34452
1.34217
1.33982
1.33746
1.33509
1.33272
1.33035
1.32797
1.32559
1.32321
1.32081
1.31842
1.31602
1.31361
1.3112
1.30879
1.30637
1.30394
1.30151
1.29908
1.29664
1.29419
1.29174
1.28929
1.28683
1.28436
1.28189
1.27942
1.27694
1.27445
1.27196
1.26946
1.26696
1.26445
1.26194
1.25942
1.25689
1.25436
1.25182
1.24928
1.24673
1.24418
1.24162
1.23905
1.23648
1.2339
1.23131
1.22872
1.22612
1.22352
1.22091
1.2183
1.21567
1.21304
1.21041
1.20777
1.20512
1.20246
1.1998
1.19713
1.19445
1.19177
1.18908
1.18638
1.18368
1.18097
1.17825
1.17553
1.17279
1.17005
1.16731
1.16455
1.16179
1.15902
1.15625
1.15346
1.15067
1.14787
1.14506
1.14225
1.13942
1.13659
1.13375
1.13091
1.12805
1.12519
1.12232
1.11944
1.11655
1.11365
1.11075
1.10783
1.10491
1.10198
1.09904
1.09609
1.09314
1.09017
1.0872
1.08421
1.08122
1.07822
1.07521
1.07219
1.06916
1.06612
1.06307
1.06002
1.05695
1.05387
1.05079
1.04769
1.04459
1.04147
1.03835
1.03522
1.03207
1.02892
1.02575
1.02258
1.01939
1.0162
1.01299
1.00978
1.00655
1.00331
1.00007
0.996808
0.993539
0.990259
0.986969
0.983668
0.980356
0.977033
0.973699
0.970353
0.966997
0.963629
0.96025
0.956859
0.953457
0.950044
0.946619
0.943182
0.939733
0.936273
0.932801
0.929317
0.925821
0.922313
0.918793
0.91526
0.911716
0.908159
0.90459
0.901008
0.897414
0.893807
0.890187
0.886555
0.88291
0.879253
0.875582
0.871898
0.868202
0.864492
0.860769
0.857033
0.853283
0.84952
0.845744
0.841954
0.838151
0.834334
0.830503
0.826658
0.8228
0.818928
0.815041
0.811141
0.807227
0.803298
0.799355
0.795398
0.791426
0.78744
0.783439
0.779424
0.775394
0.771349
0.767289
0.763215
0.759126
0.755021
0.750902
0.746767
0.742617
0.738452
0.734271
0.730075
0.725863
0.721636
0.717393
0.713134
0.70886
0.70457
0.700263
0.695941
0.691603
0.687248
0.682877
0.67849
0.674087
0.669667
0.66523
0.660777
0.656308
0.651821
0.647318
0.642798
0.638261
0.633706
0.629135
0.624547
0.619941
0.615318
0.610678
0.60602
0.601345
0.596652
0.591941
0.587212
0.582466
0.577702
0.57292
0.568119
0.563301
0.558464
0.553609
0.548736
0.543844
0.538934
0.534005
0.529058
0.524091
0.519106
0.514102
0.509079
0.504037
0.498975
0.493895
0.488795
0.483675
0.478536
0.473378
0.4682
0.463002
0.457784
0.452546
0.447289
0.442011
0.436713
0.431394
0.426056
0.420697
0.415317
0.409917
0.404496
0.399054
0.393592
0.388108
0.382604
0.377078
0.371531
0.365962
0.360373
0.354762
0.349129
0.343474
0.337798
0.3321
0.32638
0.320638
0.314874
0.309088
0.303279
0.297448
0.291595
0.285719
0.27982
0.273899
0.267955
0.261988
0.255998
0.249985
0.243949
0.237889
0.231807
0.2257
0.219571
0.213417
0.20724
0.20104
0.194815
0.188566
0.182294
0.175997
0.169676
0.16333
0.15696
0.150566
0.144147
0.137703
0.131234
0.124741
0.118222
0.111679
0.10511
0.0985157
0.0918962
0.0852511
0.0785805
0.0718842
0.0651621
0.0584141
0.0516401
0.04484
0.0380138
0.0311612
0.0242823
0.0173768
0.0104448
0.00348607
1.91094
1.91098
1.91095
1.91084
1.91064
1.91036
1.91001
1.90958
1.90907
1.90849
1.90782
1.90708
1.90626
1.90537
1.9044
1.90336
1.90225
1.90107
1.89981
1.89849
1.8971
1.89565
1.89414
1.89256
1.89093
1.88924
1.88749
1.88569
1.88385
1.88195
1.88
1.87802
1.87599
1.87392
1.87181
1.86966
1.86748
1.86527
1.86303
1.86076
1.85846
1.85614
1.85379
1.85142
1.84903
1.84663
1.8442
1.84176
1.8393
1.83683
1.83435
1.83186
1.82936
1.82684
1.82432
1.8218
1.81927
1.81673
1.81419
1.81164
1.8091
1.80655
1.804
1.80145
1.7989
1.79635
1.7938
1.79126
1.78871
1.78617
1.78363
1.7811
1.77857
1.77604
1.77352
1.771
1.76849
1.76599
1.76349
1.76099
1.75851
1.75603
1.75355
1.75108
1.74862
1.74617
1.74372
1.74128
1.73885
1.73642
1.734
1.73159
1.72919
1.72679
1.7244
1.72202
1.71964
1.71728
1.71492
1.71256
1.71022
1.70788
1.70555
1.70322
1.7009
1.69859
1.69629
1.69399
1.6917
1.68942
1.68714
1.68487
1.6826
1.68034
1.67809
1.67584
1.6736
1.67137
1.66914
1.66691
1.66469
1.66248
1.66027
1.65806
1.65586
1.65366
1.65147
1.64929
1.6471
1.64492
1.64275
1.64058
1.63841
1.63625
1.63409
1.63193
1.62978
1.62762
1.62548
1.62333
1.62119
1.61905
1.61691
1.61478
1.61265
1.61051
1.60839
1.60626
1.60413
1.60201
1.59989
1.59777
1.59565
1.59353
1.59142
1.5893
1.58719
1.58508
1.58296
1.58085
1.57874
1.57663
1.57452
1.57241
1.5703
1.56819
1.56609
1.56398
1.56187
1.55976
1.55765
1.55554
1.55343
1.55132
1.54921
1.5471
1.54499
1.54288
1.54077
1.53866
1.53654
1.53443
1.53231
1.53019
1.52808
1.52596
1.52384
1.52172
1.51959
1.51747
1.51535
1.51322
1.51109
1.50896
1.50683
1.5047
1.50257
1.50043
1.49829
1.49615
1.49401
1.49187
1.48973
1.48758
1.48543
1.48328
1.48113
1.47897
1.47682
1.47466
1.4725
1.47033
1.46817
1.466
1.46383
1.46166
1.45948
1.4573
1.45512
1.45294
1.45076
1.44857
1.44638
1.44418
1.44199
1.43979
1.43759
1.43538
1.43318
1.43097
1.42875
1.42654
1.42432
1.4221
1.41987
1.41764
1.41541
1.41318
1.41094
1.4087
1.40645
1.4042
1.40195
1.3997
1.39744
1.39518
1.39292
1.39065
1.38838
1.3861
1.38382
1.38154
1.37925
1.37696
1.37467
1.37237
1.37007
1.36776
1.36545
1.36314
1.36082
1.3585
1.35617
1.35385
1.35151
1.34917
1.34683
1.34449
1.34213
1.33978
1.33742
1.33506
1.33269
1.33032
1.32794
1.32556
1.32317
1.32078
1.31839
1.31599
1.31358
1.31117
1.30876
1.30634
1.30391
1.30148
1.29905
1.29661
1.29417
1.29172
1.28926
1.2868
1.28434
1.28187
1.27939
1.27691
1.27443
1.27193
1.26944
1.26693
1.26443
1.26191
1.25939
1.25687
1.25434
1.2518
1.24926
1.24671
1.24416
1.2416
1.23903
1.23646
1.23388
1.23129
1.2287
1.22611
1.2235
1.22089
1.21828
1.21566
1.21303
1.21039
1.20775
1.2051
1.20245
1.19978
1.19711
1.19444
1.19176
1.18907
1.18637
1.18367
1.18096
1.17824
1.17551
1.17278
1.17004
1.1673
1.16454
1.16178
1.15901
1.15623
1.15345
1.15066
1.14786
1.14505
1.14224
1.13941
1.13658
1.13374
1.1309
1.12804
1.12518
1.12231
1.11943
1.11654
1.11364
1.11074
1.10782
1.1049
1.10197
1.09903
1.09608
1.09313
1.09016
1.08719
1.08421
1.08121
1.07821
1.0752
1.07218
1.06915
1.06611
1.06307
1.06001
1.05694
1.05387
1.05078
1.04769
1.04458
1.04147
1.03834
1.03521
1.03207
1.02891
1.02575
1.02257
1.01939
1.01619
1.01299
1.00977
1.00655
1.00331
1.00006
0.996803
0.993535
0.990255
0.986965
0.983664
0.980352
0.977029
0.973695
0.97035
0.966993
0.963625
0.960246
0.956856
0.953454
0.95004
0.946615
0.943179
0.93973
0.93627
0.932798
0.929314
0.925818
0.92231
0.91879
0.915258
0.911713
0.908156
0.904587
0.901005
0.897411
0.893804
0.890185
0.886553
0.882908
0.87925
0.87558
0.871896
0.8682
0.86449
0.860767
0.857031
0.853281
0.849519
0.845742
0.841953
0.838149
0.834332
0.830501
0.826657
0.822799
0.818926
0.81504
0.81114
0.807225
0.803297
0.799354
0.795396
0.791425
0.787439
0.783438
0.779423
0.775393
0.771348
0.767288
0.763214
0.759124
0.75502
0.750901
0.746766
0.742616
0.738451
0.73427
0.730074
0.725862
0.721635
0.717392
0.713134
0.708859
0.704569
0.700263
0.69594
0.691602
0.687247
0.682877
0.67849
0.674086
0.669666
0.66523
0.660777
0.656307
0.651821
0.647317
0.642797
0.63826
0.633706
0.629135
0.624546
0.619941
0.615318
0.610677
0.60602
0.601344
0.596651
0.59194
0.587212
0.582466
0.577702
0.572919
0.568119
0.563301
0.558464
0.553609
0.548736
0.543844
0.538934
0.534005
0.529057
0.524091
0.519106
0.514102
0.509079
0.504036
0.498975
0.493894
0.488794
0.483675
0.478536
0.473378
0.468199
0.463002
0.457784
0.452546
0.447288
0.442011
0.436713
0.431394
0.426056
0.420697
0.415317
0.409917
0.404496
0.399054
0.393592
0.388108
0.382604
0.377078
0.371531
0.365962
0.360373
0.354761
0.349129
0.343474
0.337798
0.3321
0.32638
0.320638
0.314874
0.309088
0.303279
0.297448
0.291595
0.285719
0.27982
0.273899
0.267955