/*--------------------------------*- C++ -*----------------------------------*\
  =========                 |
  \\      /  F ield         | OpenFOAM: The Open Source CFD Toolbox
   \\    /   O peration     | Website:  https://openfoam.org
    \\  /    A nd           | Version:  7
     \\/     M anipulation  |
\*---------------------------------------------------------------------------*/
FoamFile
{
    version     2.0;
    format      ascii;
    class       surfaceScalarField;
    location    "10";
    object      phi;
}
// * * * * * * * * * * * * * * * * * * * * * * * * * * * * * * * * * * * * * //

dimensions      [0 3 -1 0 0 0 0];

internalField   nonuniform List<scalar> 
95320
(
0.00250152
-7.1006e-08
2.00321e-13
0.00250174
-2.14568e-07
4.51283e-13
0.0025021
-3.599e-07
3.43952e-13
0.0025026
-5.06712e-07
1.3815e-13
0.00250326
-6.54801e-07
2.83362e-14
0.00250406
-8.03959e-07
-3.12354e-14
0.00250502
-9.53975e-07
-6.44178e-14
0.00250612
-1.10463e-06
-8.27543e-14
0.00250738
-1.2557e-06
-9.56179e-14
0.00250878
-1.40697e-06
-1.07156e-13
0.00251034
-1.55821e-06
-1.20116e-13
0.00251205
-1.70919e-06
-1.37653e-13
0.00251391
-1.85969e-06
-1.6043e-13
0.00251592
-2.00949e-06
-1.89597e-13
0.00251808
-2.15836e-06
-2.25244e-13
0.00252038
-2.30608e-06
-2.67312e-13
0.00252284
-2.45244e-06
-3.1574e-13
0.00252543
-2.59724e-06
-3.69569e-13
0.00252817
-2.74027e-06
-4.27563e-13
0.00253106
-2.88134e-06
-4.9e-13
0.00253408
-3.02026e-06
-5.5409e-13
0.00253723
-3.15685e-06
-6.17228e-13
0.00254052
-3.29094e-06
-6.80387e-13
0.00254395
-3.42238e-06
-7.43008e-13
0.0025475
-3.55102e-06
-8.01449e-13
0.00255117
-3.67671e-06
-8.5589e-13
0.00255497
-3.79933e-06
-9.08107e-13
0.00255889
-3.91876e-06
-9.55863e-13
0.00256293
-4.0349e-06
-9.98241e-13
0.00256707
-4.14765e-06
-1.03569e-12
0.00257133
-4.25694e-06
-1.06819e-12
0.00257569
-4.36269e-06
-1.09517e-12
0.00258016
-4.46484e-06
-1.11658e-12
0.00258472
-4.56335e-06
-1.13244e-12
0.00258938
-4.65818e-06
-1.14299e-12
0.00259413
-4.7493e-06
-1.14848e-12
0.00259897
-4.83669e-06
-1.14786e-12
0.00260389
-4.92036e-06
-1.14102e-12
0.00260889
-5.0003e-06
-1.12978e-12
0.00261396
-5.07653e-06
-1.11341e-12
0.00261911
-5.14906e-06
-1.09107e-12
0.00262433
-5.21793e-06
-1.06525e-12
0.00262961
-5.28318e-06
-1.03638e-12
0.00263496
-5.34485e-06
-1.00201e-12
0.00264036
-5.40298e-06
-9.63274e-13
0.00264582
-5.45765e-06
-9.23642e-13
0.00265133
-5.5089e-06
-8.80908e-13
0.00265688
-5.55681e-06
-8.33969e-13
0.00266249
-5.60145e-06
-7.85154e-13
0.00266813
-5.64289e-06
-7.34569e-13
0.00267381
-5.68122e-06
-6.80446e-13
0.00267953
-5.71651e-06
-6.24093e-13
0.00268528
-5.74886e-06
-5.67044e-13
0.00269105
-5.77834e-06
-5.07662e-13
0.00269686
-5.80506e-06
-4.45157e-13
0.00270269
-5.82909e-06
-3.80872e-13
0.00270854
-5.85054e-06
-3.15037e-13
0.00271441
-5.86949e-06
-2.46197e-13
0.00272029
-5.88603e-06
-1.74054e-13
0.00272619
-5.90026e-06
-1.0003e-13
0.00273211
-5.91228e-06
-2.46377e-14
0.00273803
-5.92216e-06
5.31265e-14
0.00274396
-5.93e-06
1.3345e-13
0.00274989
-5.9359e-06
2.156e-13
0.00275583
-5.93993e-06
2.99166e-13
0.00276178
-5.94219e-06
3.83986e-13
0.00276772
-5.94277e-06
4.6939e-13
0.00277366
-5.94173e-06
5.54724e-13
0.0027796
-5.93918e-06
6.403e-13
0.00278554
-5.93518e-06
7.26971e-13
0.00279147
-5.92982e-06
8.14568e-13
0.00279739
-5.92317e-06
9.01541e-13
0.0028033
-5.9153e-06
9.86762e-13
0.00280921
-5.90628e-06
1.07047e-12
0.00281511
-5.89619e-06
1.15287e-12
0.00282099
-5.88509e-06
1.23333e-12
0.00282686
-5.87304e-06
1.31126e-12
0.00283272
-5.8601e-06
1.38633e-12
0.00283857
-5.84635e-06
1.45833e-12
0.0028444
-5.83182e-06
1.527e-12
0.00285022
-5.81658e-06
1.59195e-12
0.00285602
-5.80068e-06
1.65311e-12
0.0028618
-5.78417e-06
1.71085e-12
0.00286757
-5.76709e-06
1.76523e-12
0.00287332
-5.7495e-06
1.81559e-12
0.00287905
-5.73143e-06
1.86071e-12
0.00288477
-5.71293e-06
1.8996e-12
0.00289046
-5.69403e-06
1.93211e-12
0.00289613
-5.67478e-06
1.95884e-12
0.00290179
-5.6552e-06
1.98045e-12
0.00290742
-5.63534e-06
1.99714e-12
0.00291304
-5.61522e-06
2.00874e-12
0.00291863
-5.59487e-06
2.01478e-12
0.00292421
-5.57431e-06
2.01449e-12
0.00292976
-5.55359e-06
2.00717e-12
0.0029353
-5.53271e-06
1.9928e-12
0.00294081
-5.51171e-06
1.97195e-12
0.0029463
-5.49059e-06
1.9455e-12
0.00295177
-5.46939e-06
1.91419e-12
0.00295721
-5.44812e-06
1.87841e-12
0.00296264
-5.4268e-06
1.83798e-12
0.00296805
-5.40544e-06
1.79221e-12
0.00297343
-5.38406e-06
1.74059e-12
0.00297879
-5.36267e-06
1.68356e-12
0.00298414
-5.34128e-06
1.62217e-12
0.00298946
-5.3199e-06
1.55717e-12
0.00299475
-5.29854e-06
1.48855e-12
0.00300003
-5.27722e-06
1.41579e-12
0.00300529
-5.25594e-06
1.3385e-12
0.00301052
-5.2347e-06
1.25685e-12
0.00301574
-5.21351e-06
1.17159e-12
0.00302093
-5.19238e-06
1.08373e-12
0.0030261
-5.17131e-06
9.93876e-13
0.00303125
-5.15031e-06
9.01929e-13
0.00303638
-5.12937e-06
8.07317e-13
0.00304149
-5.10851e-06
7.09733e-13
0.00304657
-5.08772e-06
6.1012e-13
0.00305164
-5.067e-06
5.10485e-13
0.00305669
-5.04636e-06
4.1201e-13
0.00306171
-5.0258e-06
3.13834e-13
0.00306672
-5.00531e-06
2.13944e-13
0.0030717
-4.98489e-06
1.115e-13
0.00307667
-4.96455e-06
8.02788e-15
0.00308161
-4.94428e-06
-9.45025e-14
0.00308654
-4.92409e-06
-1.95317e-13
0.00309144
-4.90396e-06
-2.94652e-13
0.00309632
-4.88391e-06
-3.92932e-13
0.00310119
-4.86392e-06
-4.90464e-13
0.00310603
-4.84399e-06
-5.87585e-13
0.00311086
-4.82412e-06
-6.81197e-13
0.00311566
-4.80431e-06
-7.77205e-13
0.00312045
-4.78456e-06
-8.67767e-13
0.00312521
-4.76486e-06
-9.54944e-13
0.00312996
-4.74521e-06
-1.0388e-12
0.00313468
-4.7256e-06
-1.12004e-12
0.00313939
-4.70604e-06
-1.19924e-12
0.00314407
-4.68651e-06
-1.2763e-12
0.00314874
-4.66703e-06
-1.35099e-12
0.00315339
-4.64757e-06
-1.42311e-12
0.00315802
-4.62814e-06
-1.49282e-12
0.00316263
-4.60874e-06
-1.56071e-12
0.00316721
-4.58936e-06
-1.62718e-12
0.00317178
-4.57e-06
-1.69179e-12
0.00317634
-4.55066e-06
-1.75336e-12
0.00318087
-4.53133e-06
-1.81096e-12
0.00318538
-4.51201e-06
-1.86423e-12
0.00318987
-4.4927e-06
-1.91289e-12
0.00319434
-4.47338e-06
-1.95692e-12
0.0031988
-4.45407e-06
-1.99637e-12
0.00320323
-4.43476e-06
-2.03034e-12
0.00320765
-4.41544e-06
-2.05696e-12
0.00321205
-4.39612e-06
-2.07448e-12
0.00321642
-4.37678e-06
-2.08298e-12
0.00322078
-4.35743e-06
-2.08429e-12
0.00322512
-4.33807e-06
-2.08099e-12
0.00322944
-4.31869e-06
-2.07516e-12
0.00323374
-4.29929e-06
-2.06686e-12
0.00323802
-4.27987e-06
-2.05497e-12
0.00324228
-4.26042e-06
-2.03829e-12
0.00324652
-4.24095e-06
-2.01617e-12
0.00325074
-4.22146e-06
-1.98972e-12
0.00325494
-4.20193e-06
-1.96075e-12
0.00325912
-4.18238e-06
-1.93022e-12
0.00326329
-4.16279e-06
-1.89737e-12
0.00326743
-4.14318e-06
-1.86079e-12
0.00327155
-4.12352e-06
-1.82071e-12
0.00327566
-4.10384e-06
-1.77934e-12
0.00327974
-4.08412e-06
-1.73914e-12
0.0032838
-4.06436e-06
-1.70006e-12
0.00328785
-4.04457e-06
-1.65884e-12
0.00329187
-4.02474e-06
-1.61046e-12
0.00329588
-4.00488e-06
-1.55316e-12
0.00329986
-3.98497e-06
-1.49144e-12
0.00330383
-3.96503e-06
-1.43142e-12
0.00330777
-3.94505e-06
-1.37692e-12
0.0033117
-3.92503e-06
-1.32692e-12
0.0033156
-3.90498e-06
-1.27716e-12
0.00331949
-3.88488e-06
-1.22422e-12
0.00332335
-3.86475e-06
-1.16858e-12
0.0033272
-3.84458e-06
-1.11427e-12
0.00333102
-3.82438e-06
-1.0656e-12
0.00333483
-3.80414e-06
-1.02455e-12
0.00333861
-3.78386e-06
-9.88757e-13
0.00334237
-3.76355e-06
-9.5318e-13
0.00334612
-3.74321e-06
-9.13329e-13
0.00334984
-3.72283e-06
-8.6591e-13
0.00335354
-3.70242e-06
-8.11649e-13
0.00335722
-3.68198e-06
-7.56135e-13
0.00336089
-3.6615e-06
-7.06116e-13
0.00336453
-3.641e-06
-6.65182e-13
0.00336815
-3.62047e-06
-6.30259e-13
0.00337175
-3.59991e-06
-5.91964e-13
0.00337533
-3.57933e-06
-5.44038e-13
0.00337889
-3.55872e-06
-4.89293e-13
0.00338242
-3.53809e-06
-4.35397e-13
0.00338594
-3.51744e-06
-3.88661e-13
0.00338944
-3.49676e-06
-3.50407e-13
0.00339291
-3.47607e-06
-3.18003e-13
0.00339637
-3.45535e-06
-2.89822e-13
0.0033998
-3.43462e-06
-2.62599e-13
0.00340322
-3.41388e-06
-2.34753e-13
0.00340661
-3.39312e-06
-2.0808e-13
0.00340998
-3.37235e-06
-1.86774e-13
0.00341333
-3.35157e-06
-1.73564e-13
0.00341667
-3.33078e-06
-1.67646e-13
0.00341998
-3.30998e-06
-1.6391e-13
0.00342326
-3.28918e-06
-1.56326e-13
0.00342653
-3.26837e-06
-1.40445e-13
0.00342978
-3.24756e-06
-1.16034e-13
0.00343301
-3.22675e-06
-8.91734e-14
0.00343621
-3.20594e-06
-6.49666e-14
0.0034394
-3.18513e-06
-4.3438e-14
0.00344256
-3.16432e-06
-2.2915e-14
0.00344571
-3.14352e-06
-3.082e-15
0.00344883
-3.12273e-06
1.24823e-14
0.00345193
-3.10194e-06
2.05337e-14
0.00345501
-3.08117e-06
2.30436e-14
0.00345807
-3.0604e-06
2.4795e-14
0.00346111
-3.03965e-06
2.95684e-14
0.00346413
-3.01892e-06
3.59715e-14
0.00346713
-2.9982e-06
4.05407e-14
0.00347011
-2.9775e-06
4.23051e-14
0.00347306
-2.95682e-06
4.57191e-14
0.003476
-2.93616e-06
5.7009e-14
0.00347891
-2.91552e-06
7.39218e-14
0.00348181
-2.89491e-06
8.88543e-14
0.00348468
-2.87432e-06
9.73584e-14
0.00348754
-2.85376e-06
1.03635e-13
0.00349037
-2.83323e-06
1.13305e-13
0.00349318
-2.81273e-06
1.22423e-13
0.00349598
-2.79226e-06
1.31432e-13
0.00349875
-2.77182e-06
1.46732e-13
0.0035015
-2.75142e-06
1.67029e-13
0.00350423
-2.73106e-06
1.77966e-13
0.00350694
-2.71073e-06
1.74953e-13
0.00350963
-2.69044e-06
1.69108e-13
0.0035123
-2.67019e-06
1.72376e-13
0.00351495
-2.64998e-06
1.8913e-13
0.00351758
-2.62981e-06
2.15356e-13
0.00352019
-2.60969e-06
2.40747e-13
0.00352278
-2.58961e-06
2.55948e-13
0.00352535
-2.56958e-06
2.61997e-13
0.0035279
-2.5496e-06
2.57447e-13
0.00353043
-2.52966e-06
2.4762e-13
0.00353294
-2.50978e-06
2.3842e-13
0.00353543
-2.48994e-06
2.22025e-13
0.0035379
-2.47016e-06
2.07234e-13
0.00354035
-2.45043e-06
1.98641e-13
0.00354278
-2.43076e-06
1.90637e-13
0.00354519
-2.41114e-06
1.79344e-13
0.00354758
-2.39158e-06
1.71701e-13
0.00354996
-2.37208e-06
1.76314e-13
0.00355231
-2.35263e-06
1.92885e-13
0.00355464
-2.33325e-06
2.13671e-13
0.00355696
-2.31393e-06
2.34522e-13
0.00355925
-2.29467e-06
2.56713e-13
0.00356153
-2.27547e-06
2.77665e-13
0.00356378
-2.25633e-06
3.0314e-13
0.00356602
-2.23726e-06
3.46425e-13
0.00356824
-2.21826e-06
3.97512e-13
0.00357044
-2.19932e-06
4.22874e-13
0.00357262
-2.18045e-06
4.13616e-13
0.00357478
-2.16164e-06
3.98335e-13
0.00357692
-2.14291e-06
4.12727e-13
0.00357905
-2.12425e-06
4.4284e-13
0.00358115
-2.10565e-06
4.4253e-13
0.00358324
-2.08713e-06
3.99667e-13
0.00358531
-2.06868e-06
3.44092e-13
0.00358736
-2.05031e-06
3.06445e-13
0.00358939
-2.032e-06
2.83965e-13
0.0035914
-2.01377e-06
2.58818e-13
0.0035934
-1.99562e-06
2.32183e-13
0.00359538
-1.97754e-06
2.19773e-13
0.00359734
-1.95954e-06
2.14322e-13
0.00359928
-1.94162e-06
1.92661e-13
0.0036012
-1.92377e-06
1.73981e-13
0.00360311
-1.90601e-06
1.81005e-13
0.003605
-1.88832e-06
1.99829e-13
0.00360687
-1.87071e-06
2.05148e-13
0.00360872
-1.85318e-06
1.8589e-13
0.00361056
-1.83573e-06
1.68274e-13
0.00361237
-1.81837e-06
1.73194e-13
0.00361417
-1.80108e-06
1.87073e-13
0.00361596
-1.78388e-06
1.82689e-13
0.00361773
-1.76676e-06
1.46671e-13
0.00361948
-1.74972e-06
9.62224e-14
0.00362121
-1.73277e-06
6.17143e-14
0.00362292
-1.7159e-06
4.77362e-14
0.00362462
-1.69912e-06
2.83078e-14
0.00362631
-1.68243e-06
-1.01086e-14
0.00362797
-1.66581e-06
-5.09606e-14
0.00362962
-1.64929e-06
-5.5822e-14
0.00363125
-1.63285e-06
-3.42111e-14
0.00363287
-1.6165e-06
-1.38997e-14
0.00363447
-1.60024e-06
-1.67508e-14
0.00363605
-1.58406e-06
-4.191e-14
0.00363762
-1.56797e-06
-4.66923e-14
0.00363917
-1.55197e-06
6.21992e-15
0.00364071
-1.53606e-06
8.69823e-14
0.00364223
-1.52024e-06
1.26509e-13
0.00364374
-1.50451e-06
1.12264e-13
0.00364522
-1.48887e-06
9.45078e-14
0.0036467
-1.47332e-06
1.10035e-13
0.00364816
-1.45786e-06
1.38699e-13
0.0036496
-1.44249e-06
1.44418e-13
0.00365102
-1.42721e-06
1.30537e-13
0.00365244
-1.41202e-06
1.49041e-13
0.00365383
-1.39692e-06
2.13439e-13
0.00365522
-1.38192e-06
2.70931e-13
0.00365658
-1.36701e-06
2.74696e-13
0.00365793
-1.35219e-06
2.52731e-13
0.00365927
-1.33746e-06
2.65866e-13
0.0036606
-1.32283e-06
2.94221e-13
0.0036619
-1.30828e-06
2.90966e-13
0.0036632
-1.29384e-06
2.66341e-13
0.00366448
-1.27948e-06
2.69672e-13
0.00366574
-1.26522e-06
3.12612e-13
0.00366699
-1.25105e-06
3.48235e-13
0.00366823
-1.23698e-06
3.31646e-13
0.00366945
-1.223e-06
2.82009e-13
0.00367066
-1.20911e-06
2.64345e-13
0.00367186
-1.19532e-06
2.94468e-13
0.00367304
-1.18162e-06
3.23164e-13
0.00367421
-1.16801e-06
3.10786e-13
0.00367536
-1.15451e-06
3.04812e-13
0.0036765
-1.14109e-06
3.51285e-13
0.00367763
-1.12777e-06
4.00111e-13
0.00367874
-1.11454e-06
3.75903e-13
0.00367985
-1.10141e-06
2.84194e-13
0.00368093
-1.08838e-06
2.09448e-13
0.00368201
-1.07544e-06
1.7596e-13
0.00368307
-1.06259e-06
1.5225e-13
0.00368412
-1.04984e-06
1.03701e-13
0.00368516
-1.03718e-06
1.39193e-14
0.00368618
-1.02462e-06
-7.41597e-14
0.0036872
-1.01216e-06
-1.20416e-13
0.0036882
-9.99784e-07
-1.17632e-13
0.00368918
-9.87508e-07
-8.64008e-14
0.00369016
-9.75326e-07
-3.22819e-14
0.00369112
-9.6324e-07
3.717e-14
0.00369207
-9.51248e-07
1.00801e-13
0.00369301
-9.39351e-07
1.49742e-13
0.00369394
-9.27549e-07
1.72522e-13
0.00369486
-9.15842e-07
1.65662e-13
0.00369576
-9.04229e-07
1.34141e-13
0.00369665
-8.92711e-07
1.12526e-13
0.00369753
-8.81287e-07
8.20648e-14
0.0036984
-8.69957e-07
9.52434e-14
0.00369926
-8.58722e-07
1.3245e-13
0.00370011
-8.47581e-07
1.41562e-13
0.00370095
-8.36534e-07
1.3955e-13
0.00370177
-8.25581e-07
1.36504e-13
0.00370259
-8.14722e-07
1.54378e-13
0.00370339
-8.03956e-07
1.87401e-13
0.00370419
-7.93284e-07
2.376e-13
0.00370497
-7.82705e-07
2.77946e-13
0.00370574
-7.7222e-07
2.9081e-13
0.0037065
-7.61828e-07
2.89665e-13
0.00370725
-7.51528e-07
2.86393e-13
0.00370799
-7.41321e-07
3.01332e-13
0.00370873
-7.31206e-07
3.18442e-13
0.00370945
-7.21184e-07
3.15873e-13
0.00371016
-7.11254e-07
2.82563e-13
0.00371086
-7.01416e-07
2.74289e-13
0.00371155
-6.91669e-07
3.18079e-13
0.00371223
-6.82014e-07
3.5892e-13
0.00371291
-6.7245e-07
3.52536e-13
0.00371357
-6.62977e-07
3.56119e-13
0.00371422
-6.53595e-07
3.64161e-13
0.00371487
-6.44303e-07
2.84985e-13
0.0037155
-6.35102e-07
2.01588e-13
0.00371613
-6.2599e-07
1.68271e-13
0.00371674
-6.16968e-07
1.80494e-13
0.00371735
-6.08035e-07
1.61041e-13
0.00371795
-5.99192e-07
3.76038e-14
0.00371854
-5.90437e-07
-2.43057e-14
0.00371912
-5.81771e-07
-2.37238e-14
0.0037197
-5.73192e-07
-2.60793e-14
0.00372026
-5.64702e-07
-1.55883e-15
0.00372082
-5.563e-07
-1.95885e-14
0.00372137
-5.47984e-07
-9.17113e-14
0.00372191
-5.39756e-07
-1.55612e-13
0.00372244
-5.31614e-07
-2.13853e-13
0.00372296
-5.23559e-07
-2.89001e-13
0.00372348
-5.15589e-07
-3.23235e-13
0.00372398
-5.07705e-07
-3.5891e-13
0.00372448
-4.99906e-07
-5.36292e-13
0.00372498
-4.92191e-07
-6.59065e-13
0.00372546
-4.84562e-07
-7.28625e-13
0.00372594
-4.77016e-07
-8.50436e-13
0.00372641
-4.69554e-07
-9.4871e-13
0.00372687
-4.62175e-07
-9.43871e-13
0.00372732
-4.54879e-07
-9.37121e-13
0.00372777
-4.47666e-07
-1.04941e-12
0.00372821
-4.40535e-07
-1.14146e-12
0.00372865
-4.33485e-07
-1.15695e-12
0.00372907
-4.26517e-07
-1.15938e-12
0.00372949
-4.1963e-07
-1.22559e-12
0.00372991
-4.12823e-07
-1.23187e-12
0.00373031
-4.06096e-07
-1.1032e-12
0.00373071
-3.99448e-07
-9.8915e-13
0.0037311
-3.9288e-07
-1.01924e-12
0.00373149
-3.86391e-07
-1.13948e-12
0.00373187
-3.7998e-07
-1.13584e-12
0.00373224
-3.73646e-07
-9.85067e-13
0.00373261
-3.6739e-07
-8.6769e-13
0.00373297
-3.61211e-07
-7.90034e-13
0.00373333
-3.55108e-07
-7.03969e-13
0.00373368
-3.49081e-07
-7.78642e-13
0.00373402
-3.4313e-07
-7.98939e-13
0.00373436
-3.37253e-07
-7.29067e-13
0.00373469
-3.31451e-07
-5.85856e-13
0.00373501
-3.25723e-07
-4.58387e-13
0.00373533
-3.20069e-07
-3.36463e-13
0.00373565
-3.14488e-07
-2.92649e-13
0.00373596
-3.08979e-07
-3.57601e-13
0.00373626
-3.03543e-07
-4.10316e-13
0.00373656
-2.98177e-07
-3.50386e-13
0.00373685
-2.92883e-07
-2.77227e-13
0.00373714
-2.87659e-07
-1.90605e-13
0.00373742
-2.82506e-07
-1.03226e-13
0.0037377
-2.77422e-07
-1.5689e-13
0.00373797
-2.72407e-07
-9.80758e-14
0.00373824
-2.6746e-07
6.65103e-14
0.0037385
-2.62581e-07
1.11258e-13
0.00373876
-2.5777e-07
1.00779e-13
0.00373901
-2.53025e-07
6.94007e-14
0.00373926
-2.48347e-07
1.85788e-13
0.00373951
-2.43735e-07
3.53388e-13
0.00373974
-2.39188e-07
4.12221e-13
0.00373998
-2.34706e-07
4.01346e-13
0.00374021
-2.30288e-07
4.56289e-13
0.00374044
-2.25934e-07
5.07655e-13
0.00374066
-2.21642e-07
5.03905e-13
0.00374087
-2.17414e-07
5.90801e-13
0.00374109
-2.13247e-07
6.02608e-13
0.0037413
-2.09142e-07
5.56106e-13
0.0037415
-2.05097e-07
5.74558e-13
0.0037417
-2.01113e-07
5.05994e-13
0.0037419
-1.97189e-07
4.2238e-13
0.00374209
-1.93324e-07
4.34284e-13
0.00374228
-1.89517e-07
3.79416e-13
0.00374247
-1.85769e-07
3.68359e-13
0.00374265
-1.82078e-07
2.57538e-13
0.00374283
-1.78445e-07
1.68521e-13
0.003743
-1.74867e-07
2.17173e-13
0.00374318
-1.71346e-07
2.47254e-13
0.00374334
-1.67879e-07
1.40928e-13
0.00374351
-1.64467e-07
-2.80637e-14
0.00374367
-1.61109e-07
-7.75871e-14
0.00374383
-1.57805e-07
-7.81353e-14
0.00374398
-1.54553e-07
-1.94785e-13
0.00374413
-1.51353e-07
-1.6635e-13
0.00374428
-1.48205e-07
-1.88504e-13
0.00374443
-1.45108e-07
-2.16683e-13
0.00374457
-1.42061e-07
-2.83826e-13
0.00374471
-1.39064e-07
-2.455e-13
0.00374484
-1.36116e-07
-2.05782e-13
0.00374498
-1.33216e-07
-1.22744e-13
0.00374511
-1.30364e-07
-1.33961e-13
0.00374523
-1.27559e-07
-3.02153e-13
0.00374536
-1.24799e-07
-3.66842e-13
0.00374548
-1.22086e-07
-1.89967e-13
0.0037456
-1.19417e-07
-2.12689e-13
0.00374572
-1.16793e-07
-3.97086e-13
0.00374583
-1.14211e-07
-4.15311e-13
0.00374594
-1.11672e-07
-3.64001e-13
0.00374605
-1.09175e-07
-2.40485e-13
0.00374616
-1.06719e-07
-2.81536e-13
0.00374626
-1.04303e-07
-4.61442e-13
0.00374637
-1.01926e-07
-2.53744e-13
0.00374647
-9.95878e-08
-2.37438e-13
0.00374656
-9.72867e-08
-1.74925e-13
0.00374666
-9.50224e-08
-1.70361e-13
0.00374675
-9.27938e-08
-1.16397e-13
0.00374684
-9.05997e-08
-1.68043e-13
0.00374693
-8.84395e-08
-4.50235e-14
0.00374702
-8.6312e-08
4.58567e-14
0.0037471
-8.42167e-08
2.40985e-13
0.00374718
-8.21521e-08
1.66756e-13
0.00374726
-8.01175e-08
5.13201e-13
0.00374734
-7.81114e-08
6.29674e-13
0.00374742
-7.61331e-08
6.01668e-13
0.00374749
-7.41819e-08
6.65487e-13
0.00374756
-7.22565e-08
6.95937e-13
0.00374763
-7.03561e-08
9.40328e-13
0.0037477
-6.84795e-08
1.13777e-12
0.00374777
-6.66257e-08
8.28099e-13
0.00374783
-6.47945e-08
8.44712e-13
0.0037479
-6.29845e-08
1.02312e-12
0.00374796
-6.11947e-08
1.19164e-12
0.00374802
-5.94249e-08
1.61907e-12
0.00374807
-5.76735e-08
1.32546e-12
0.00374813
-5.59408e-08
1.53617e-12
0.00374818
-5.42257e-08
1.77823e-12
0.00374824
-5.25276e-08
1.78323e-12
0.00374829
-5.08464e-08
1.68492e-12
0.00374834
-4.91816e-08
1.71359e-12
0.00374838
-4.75332e-08
1.99645e-12
0.00374843
-4.59008e-08
2.12954e-12
0.00374847
-4.42845e-08
2.10959e-12
0.00374852
-4.26846e-08
2.32619e-12
0.00374856
-4.11007e-08
2.20098e-12
0.0037486
-3.95334e-08
2.17555e-12
0.00374864
-3.79839e-08
2.35516e-12
0.00374867
-3.64519e-08
2.28726e-12
0.00374871
-3.49381e-08
2.19962e-12
0.00374874
-3.3444e-08
2.52706e-12
0.00374877
-3.19697e-08
2.40647e-12
0.0037488
-3.05167e-08
2.40969e-12
0.00374883
-2.90859e-08
2.40122e-12
0.00374886
-2.76784e-08
2.34909e-12
0.00374889
-2.6296e-08
2.53602e-12
0.00374891
-2.49396e-08
2.26994e-12
0.00374893
-2.36107e-08
2.30215e-12
0.00374896
-2.23107e-08
2.45567e-12
0.00374898
-2.10412e-08
2.51855e-12
0.003749
-1.98034e-08
2.49321e-12
0.00374902
-1.85986e-08
2.38663e-12
0.00374903
-1.74285e-08
2.39238e-12
0.00374905
-1.62947e-08
2.47382e-12
0.00374907
-1.51985e-08
2.54609e-12
0.00374908
-1.41401e-08
2.25379e-12
0.00374909
-1.31216e-08
2.45668e-12
0.00374911
-1.21435e-08
2.17364e-12
0.00374912
-1.12076e-08
2.40499e-12
0.00374913
-1.03133e-08
2.18313e-12
0.00374914
-9.46146e-09
2.01413e-12
0.00374914
-8.65336e-09
2.05888e-12
0.00374915
-7.88808e-09
1.74385e-12
0.00374916
-7.16635e-09
1.95472e-12
0.00374917
-6.4879e-09
1.79153e-12
0.00374917
-5.8522e-09
1.52724e-12
0.00374918
-5.25875e-09
1.51031e-12
0.00374918
-4.70645e-09
1.19286e-12
0.00374919
-4.19542e-09
1.2315e-12
0.00374919
-3.72404e-09
1.11595e-12
0.00374919
-3.29016e-09
6.90221e-13
0.0037492
-2.8942e-09
1.20092e-12
0.0037492
-2.53343e-09
8.08782e-13
0.0037492
-2.20674e-09
8.50288e-13
0.0037492
-1.91155e-09
4.20608e-13
0.0037492
-1.64727e-09
4.62011e-13
0.00374921
-1.41117e-09
2.85569e-13
0.00374921
-1.202e-09
5.05127e-13
0.00374921
-1.01762e-09
4.13724e-13
0.00374921
-8.55809e-10
2.13197e-13
0.00374921
-7.1465e-10
2.16968e-13
0.00374921
-5.92681e-10
-1.92394e-14
0.00374921
-4.88539e-10
1.23364e-13
0.00374921
-3.99116e-10
7.3465e-14
0.00374921
-3.2371e-10
6.90844e-14
0.00374921
-2.60553e-10
-1.68409e-13
0.00374921
-2.08302e-10
1.3746e-13
0.00374921
-1.64895e-10
-2.25618e-13
0.00374921
-1.3011e-10
-2.10312e-13
0.00374921
-1.01802e-10
-3.42428e-13
0.00374921
-7.95889e-11
-2.69331e-13
0.00374921
-6.20062e-11
-4.73174e-13
0.00374921
-4.88897e-11
-2.02766e-13
0.00374921
-3.87657e-11
-2.13933e-13
0.00374921
-3.12454e-11
-3.48033e-13
0.00374921
-2.5851e-11
-2.37666e-13
0.00374921
-2.20718e-11
-1.33746e-13
0.00374921
-1.94928e-11
-2.67392e-13
0.00374921
-1.79364e-11
-2.61916e-13
0.00374921
-1.69375e-11
-4.19662e-13
0.00374921
-1.66631e-11
-2.10118e-13
0.00374921
-1.62399e-11
-3.59282e-13
0.00374921
-1.64134e-11
-2.67484e-13
0.00374921
-1.6197e-11
-5.87628e-13
0.00374921
-1.64141e-11
-3.45349e-13
0.00374921
-1.62936e-11
-5.96241e-13
0.00374921
-1.68599e-11
-3.58264e-13
0.00374921
-1.67717e-11
-5.53417e-13
0.00374921
-1.69276e-11
-2.22567e-13
0.00374921
-1.64312e-11
-6.90999e-13
0.00374921
-1.66087e-11
-5.2721e-13
0.00374921
-1.65338e-11
-4.63848e-13
0.00374921
-1.64479e-11
-4.33287e-13
0.00374921
-1.57425e-11
-7.57863e-13
0.00374921
-1.59759e-11
-3.88742e-13
0.00374921
-1.57596e-11
-5.64116e-13
0.00374921
-1.55922e-11
-6.18778e-13
0.00374921
-1.56768e-11
-4.26294e-13
0.00374921
-1.51607e-11
-3.31294e-13
0.00374921
-1.47631e-11
-6.36501e-13
0.00374921
-1.4788e-11
-3.69372e-13
0.00374921
-1.43741e-11
-4.89125e-13
0.00374921
-1.43549e-11
-4.97627e-13
0.00374921
-1.39799e-11
-3.32264e-13
0.00374921
-1.37483e-11
-6.37352e-13
0.00374921
-1.26435e-11
-5.25719e-13
0.00374921
-1.23526e-11
-5.22744e-13
0.00374921
-1.08454e-11
-5.89354e-13
0.00374921
-9.57114e-12
-4.96092e-13
0.00374921
-7.87645e-12
-8.48033e-14
0.00374921
-2.50604e-12
-3.37718e-13
0.00374921
7.57685e-13
1.04646e-12
9.18079e-12
1.18647e-12
0.00240039
-1.40666e-07
0.0024006
-4.25031e-07
0.00240096
-7.12898e-07
0.00240145
-1.00369e-06
0.0024021
-1.29699e-06
0.00240288
-1.59239e-06
0.00240382
-1.88945e-06
0.0024049
-2.18774e-06
0.00240613
-2.48681e-06
0.00240751
-2.7862e-06
0.00240904
-3.08547e-06
0.00241071
-3.38416e-06
0.00241254
-3.68181e-06
0.00241451
-3.97798e-06
0.00241662
-4.27222e-06
0.00241888
-4.5641e-06
0.00242128
-4.85319e-06
0.00242382
-5.13907e-06
0.0024265
-5.42134e-06
0.00242932
-5.69962e-06
0.00243227
-5.97354e-06
0.00243536
-6.24274e-06
0.00243857
-6.50688e-06
0.00244192
-6.76567e-06
0.00244539
-7.01879e-06
0.00244897
-7.26599e-06
0.00245268
-7.50702e-06
0.00245651
-7.74165e-06
0.00246044
-7.96967e-06
0.00246448
-8.19092e-06
0.00246863
-8.40523e-06
0.00247288
-8.61247e-06
0.00247723
-8.81254e-06
0.00248167
-9.00535e-06
0.0024862
-9.19082e-06
0.00249082
-9.36893e-06
0.00249553
-9.53964e-06
0.00250031
-9.70295e-06
0.00250517
-9.85888e-06
0.0025101
-1.00075e-05
0.0025151
-1.01487e-05
0.00252016
-1.02828e-05
0.00252529
-1.04097e-05
0.00253047
-1.05295e-05
0.00253571
-1.06423e-05
0.002541
-1.07484e-05
0.00254634
-1.08477e-05
0.00255173
-1.09405e-05
0.00255715
-1.10268e-05
0.00256262
-1.11069e-05
0.00256812
-1.11808e-05
0.00257365
-1.12489e-05
0.00257921
-1.13111e-05
0.0025848
-1.13678e-05
0.00259041
-1.1419e-05
0.00259605
-1.14651e-05
0.0026017
-1.1506e-05
0.00260738
-1.15421e-05
0.00261306
-1.15735e-05
0.00261877
-1.16004e-05
0.00262448
-1.1623e-05
0.0026302
-1.16414e-05
0.00263592
-1.16558e-05
0.00264165
-1.16665e-05
0.00264739
-1.16735e-05
0.00265312
-1.16771e-05
0.00265885
-1.16774e-05
0.00266459
-1.16746e-05
0.00267032
-1.16688e-05
0.00267604
-1.16602e-05
0.00268176
-1.1649e-05
0.00268747
-1.16352e-05
0.00269318
-1.16191e-05
0.00269887
-1.16007e-05
0.00270456
-1.15803e-05
0.00271023
-1.15578e-05
0.00271589
-1.15335e-05
0.00272154
-1.15075e-05
0.00272717
-1.14799e-05
0.00273279
-1.14507e-05
0.00273839
-1.14202e-05
0.00274398
-1.13883e-05
0.00274955
-1.13552e-05
0.00275511
-1.1321e-05
0.00276064
-1.12858e-05
0.00276616
-1.12497e-05
0.00277166
-1.12126e-05
0.00277714
-1.11748e-05
0.0027826
-1.11363e-05
0.00278804
-1.10971e-05
0.00279347
-1.10573e-05
0.00279887
-1.1017e-05
0.00280425
-1.09762e-05
0.00280961
-1.0935e-05
0.00281495
-1.08934e-05
0.00282027
-1.08514e-05
0.00282557
-1.08092e-05
0.00283084
-1.07668e-05
0.0028361
-1.07241e-05
0.00284133
-1.06813e-05
0.00284654
-1.06384e-05
0.00285173
-1.05953e-05
0.0028569
-1.05522e-05
0.00286205
-1.0509e-05
0.00286717
-1.04658e-05
0.00287227
-1.04225e-05
0.00287735
-1.03793e-05
0.00288241
-1.03361e-05
0.00288745
-1.0293e-05
0.00289246
-1.02499e-05
0.00289746
-1.02069e-05
0.00290243
-1.0164e-05
0.00290738
-1.01211e-05
0.00291231
-1.00784e-05
0.00291721
-1.00358e-05
0.0029221
-9.99329e-06
0.00292696
-9.9509e-06
0.0029318
-9.90864e-06
0.00293662
-9.86651e-06
0.00294142
-9.8245e-06
0.0029462
-9.78263e-06
0.00295096
-9.74089e-06
0.00295569
-9.69928e-06
0.0029604
-9.6578e-06
0.0029651
-9.61645e-06
0.00296977
-9.57523e-06
0.00297442
-9.53414e-06
0.00297905
-9.49316e-06
0.00298366
-9.45231e-06
0.00298824
-9.41157e-06
0.00299281
-9.37095e-06
0.00299736
-9.33043e-06
0.00300188
-9.29001e-06
0.00300638
-9.2497e-06
0.00301087
-9.20948e-06
0.00301533
-9.16934e-06
0.00301977
-9.12929e-06
0.0030242
-9.08932e-06
0.0030286
-9.04942e-06
0.00303298
-9.00959e-06
0.00303734
-8.96983e-06
0.00304168
-8.93012e-06
0.003046
-8.89046e-06
0.0030503
-8.85085e-06
0.00305458
-8.81128e-06
0.00305884
-8.77175e-06
0.00306308
-8.73226e-06
0.0030673
-8.69278e-06
0.0030715
-8.65333e-06
0.00307568
-8.6139e-06
0.00307984
-8.57448e-06
0.00308398
-8.53507e-06
0.0030881
-8.49567e-06
0.0030922
-8.45626e-06
0.00309627
-8.41686e-06
0.00310033
-8.37744e-06
0.00310437
-8.33802e-06
0.00310839
-8.29858e-06
0.00311239
-8.25912e-06
0.00311637
-8.21964e-06
0.00312033
-8.18014e-06
0.00312427
-8.14062e-06
0.00312818
-8.10107e-06
0.00313208
-8.06149e-06
0.00313596
-8.02187e-06
0.00313982
-7.98222e-06
0.00314366
-7.94254e-06
0.00314748
-7.90282e-06
0.00315128
-7.86306e-06
0.00315505
-7.82326e-06
0.00315881
-7.78343e-06
0.00316255
-7.74355e-06
0.00316627
-7.70363e-06
0.00316997
-7.66367e-06
0.00317365
-7.62366e-06
0.00317731
-7.58362e-06
0.00318095
-7.54353e-06
0.00318456
-7.5034e-06
0.00318816
-7.46323e-06
0.00319174
-7.42302e-06
0.0031953
-7.38277e-06
0.00319884
-7.34248e-06
0.00320236
-7.30215e-06
0.00320585
-7.26179e-06
0.00320933
-7.22139e-06
0.00321279
-7.18095e-06
0.00321623
-7.14049e-06
0.00321965
-7.09999e-06
0.00322304
-7.05946e-06
0.00322642
-7.0189e-06
0.00322978
-6.97831e-06
0.00323312
-6.9377e-06
0.00323644
-6.89707e-06
0.00323973
-6.85642e-06
0.00324301
-6.81575e-06
0.00324627
-6.77506e-06
0.00324951
-6.73436e-06
0.00325272
-6.69365e-06
0.00325592
-6.65293e-06
0.0032591
-6.6122e-06
0.00326226
-6.57147e-06
0.00326539
-6.53073e-06
0.00326851
-6.49e-06
0.00327161
-6.44927e-06
0.00327469
-6.40854e-06
0.00327775
-6.36782e-06
0.00328078
-6.32712e-06
0.0032838
-6.28643e-06
0.0032868
-6.24575e-06
0.00328978
-6.20509e-06
0.00329274
-6.16446e-06
0.00329567
-6.12385e-06
0.00329859
-6.08327e-06
0.00330149
-6.04271e-06
0.00330437
-6.00219e-06
0.00330723
-5.96171e-06
0.00331007
-5.92126e-06
0.00331289
-5.88086e-06
0.00331569
-5.84049e-06
0.00331847
-5.80018e-06
0.00332124
-5.75991e-06
0.00332398
-5.71969e-06
0.0033267
-5.67953e-06
0.0033294
-5.63942e-06
0.00333209
-5.59938e-06
0.00333475
-5.55939e-06
0.0033374
-5.51947e-06
0.00334002
-5.47962e-06
0.00334263
-5.43983e-06
0.00334522
-5.40012e-06
0.00334779
-5.36048e-06
0.00335034
-5.32092e-06
0.00335287
-5.28144e-06
0.00335538
-5.24204e-06
0.00335787
-5.20272e-06
0.00336034
-5.16349e-06
0.0033628
-5.12434e-06
0.00336523
-5.08529e-06
0.00336765
-5.04633e-06
0.00337005
-5.00747e-06
0.00337242
-4.9687e-06
0.00337478
-4.93003e-06
0.00337713
-4.89146e-06
0.00337945
-4.853e-06
0.00338175
-4.81464e-06
0.00338404
-4.77639e-06
0.00338631
-4.73825e-06
0.00338856
-4.70022e-06
0.00339079
-4.6623e-06
0.003393
-4.6245e-06
0.0033952
-4.58681e-06
0.00339738
-4.54925e-06
0.00339954
-4.5118e-06
0.00340168
-4.47448e-06
0.0034038
-4.43728e-06
0.00340591
-4.4002e-06
0.00340799
-4.36325e-06
0.00341006
-4.32643e-06
0.00341212
-4.28974e-06
0.00341415
-4.25319e-06
0.00341617
-4.21676e-06
0.00341817
-4.18047e-06
0.00342015
-4.14432e-06
0.00342212
-4.1083e-06
0.00342406
-4.07243e-06
0.003426
-4.03669e-06
0.00342791
-4.0011e-06
0.00342981
-3.96565e-06
0.00343169
-3.93034e-06
0.00343355
-3.89518e-06
0.0034354
-3.86016e-06
0.00343723
-3.8253e-06
0.00343904
-3.79058e-06
0.00344084
-3.75601e-06
0.00344262
-3.7216e-06
0.00344438
-3.68733e-06
0.00344613
-3.65323e-06
0.00344786
-3.61927e-06
0.00344957
-3.58547e-06
0.00345127
-3.55183e-06
0.00345295
-3.51835e-06
0.00345462
-3.48502e-06
0.00345627
-3.45186e-06
0.00345791
-3.41885e-06
0.00345952
-3.38601e-06
0.00346113
-3.35333e-06
0.00346272
-3.32081e-06
0.00346429
-3.28845e-06
0.00346585
-3.25627e-06
0.00346739
-3.22424e-06
0.00346891
-3.19238e-06
0.00347043
-3.16069e-06
0.00347192
-3.12917e-06
0.0034734
-3.09782e-06
0.00347487
-3.06663e-06
0.00347632
-3.03562e-06
0.00347776
-3.00477e-06
0.00347918
-2.9741e-06
0.00348059
-2.9436e-06
0.00348198
-2.91327e-06
0.00348336
-2.88311e-06
0.00348472
-2.85313e-06
0.00348607
-2.82332e-06
0.00348741
-2.79368e-06
0.00348873
-2.76422e-06
0.00349004
-2.73494e-06
0.00349133
-2.70583e-06
0.00349261
-2.6769e-06
0.00349388
-2.64814e-06
0.00349513
-2.61957e-06
0.00349637
-2.59117e-06
0.0034976
-2.56294e-06
0.00349881
-2.5349e-06
0.00350001
-2.50703e-06
0.00350119
-2.47934e-06
0.00350237
-2.45184e-06
0.00350352
-2.42451e-06
0.00350467
-2.39736e-06
0.0035058
-2.37039e-06
0.00350692
-2.3436e-06
0.00350803
-2.317e-06
0.00350913
-2.29057e-06