/*--------------------------------*- C++ -*----------------------------------*\
  =========                 |
  \\      /  F ield         | OpenFOAM: The Open Source CFD Toolbox
   \\    /   O peration     | Website:  https://openfoam.org
    \\  /    A nd           | Version:  7
     \\/     M anipulation  |
\*---------------------------------------------------------------------------*/
FoamFile
{
    version     2.0;
    format      ascii;
    class       volScalarField;
    location    "4";
    object      p;
}
// * * * * * * * * * * * * * * * * * * * * * * * * * * * * * * * * * * * * * //

dimensions      [0 2 -2 0 0 0 0];

internalField   nonuniform List<scalar> 
48000
(
1.92646
1.92648
1.92646
1.92637
1.92622
1.92601
1.92575
1.92542
1.92503
1.92458
1.92407
1.92351
1.92288
1.92219
1.92144
1.92063
1.91976
1.91883
1.91785
1.9168
1.9157
1.91454
1.91333
1.91206
1.91074
1.90936
1.90793
1.90646
1.90493
1.90335
1.90173
1.90006
1.89834
1.89658
1.89478
1.89294
1.89106
1.88914
1.88718
1.88519
1.88316
1.8811
1.87901
1.87689
1.87474
1.87257
1.87037
1.86814
1.86589
1.86362
1.86132
1.85901
1.85668
1.85433
1.85196
1.84958
1.84719
1.84478
1.84237
1.83994
1.8375
1.83505
1.8326
1.83013
1.82766
1.82519
1.82271
1.82023
1.81774
1.81525
1.81276
1.81027
1.80778
1.80528
1.80279
1.8003
1.79781
1.79532
1.79283
1.79035
1.78787
1.78539
1.78292
1.78045
1.77798
1.77552
1.77307
1.77062
1.76817
1.76573
1.7633
1.76087
1.75845
1.75603
1.75362
1.75121
1.74882
1.74642
1.74404
1.74166
1.73929
1.73692
1.73456
1.73221
1.72987
1.72753
1.72519
1.72287
1.72055
1.71823
1.71592
1.71362
1.71133
1.70904
1.70676
1.70448
1.70221
1.69994
1.69768
1.69543
1.69318
1.69094
1.6887
1.68646
1.68424
1.68201
1.67979
1.67758
1.67537
1.67316
1.67096
1.66877
1.66658
1.66439
1.6622
1.66002
1.65784
1.65567
1.6535
1.65133
1.64917
1.64701
1.64485
1.64269
1.64054
1.63839
1.63624
1.63409
1.63195
1.62981
1.62767
1.62553
1.6234
1.62126
1.61913
1.617
1.61487
1.61274
1.61061
1.60848
1.60636
1.60423
1.60211
1.59999
1.59786
1.59574
1.59362
1.5915
1.58938
1.58726
1.58513
1.58301
1.58089
1.57877
1.57665
1.57453
1.57241
1.57029
1.56816
1.56604
1.56392
1.56179
1.55967
1.55754
1.55541
1.55329
1.55116
1.54903
1.5469
1.54477
1.54263
1.5405
1.53836
1.53623
1.53409
1.53195
1.52981
1.52767
1.52552
1.52338
1.52123
1.51908
1.51693
1.51478
1.51262
1.51047
1.50831
1.50615
1.50399
1.50182
1.49966
1.49749
1.49532
1.49314
1.49097
1.48879
1.48661
1.48443
1.48224
1.48006
1.47787
1.47567
1.47348
1.47128
1.46908
1.46688
1.46467
1.46247
1.46026
1.45804
1.45583
1.45361
1.45138
1.44916
1.44693
1.4447
1.44246
1.44023
1.43799
1.43574
1.4335
1.43125
1.42899
1.42674
1.42448
1.42221
1.41995
1.41768
1.4154
1.41313
1.41085
1.40856
1.40628
1.40399
1.40169
1.39939
1.39709
1.39478
1.39248
1.39016
1.38785
1.38553
1.3832
1.38087
1.37854
1.3762
1.37386
1.37152
1.36917
1.36682
1.36447
1.36211
1.35974
1.35737
1.355
1.35263
1.35024
1.34786
1.34547
1.34308
1.34068
1.33828
1.33588
1.33347
1.33105
1.32863
1.32621
1.32379
1.32135
1.31892
1.31648
1.31404
1.31159
1.30913
1.30668
1.30422
1.30175
1.29928
1.29681
1.29433
1.29184
1.28935
1.28686
1.28436
1.28186
1.27936
1.27684
1.27433
1.27181
1.26928
1.26675
1.26422
1.26168
1.25913
1.25659
1.25403
1.25147
1.24891
1.24634
1.24376
1.24118
1.2386
1.236
1.23341
1.2308
1.2282
1.22558
1.22296
1.22034
1.2177
1.21507
1.21242
1.20977
1.20711
1.20445
1.20178
1.1991
1.19642
1.19372
1.19102
1.18832
1.1856
1.18288
1.18015
1.17741
1.17467
1.17192
1.16915
1.16638
1.1636
1.16082
1.15802
1.15521
1.1524
1.14957
1.14674
1.1439
1.14104
1.13818
1.13531
1.13243
1.12953
1.12663
1.12372
1.12079
1.11786
1.11491
1.11196
1.10899
1.10601
1.10302
1.10002
1.09701
1.09398
1.09095
1.0879
1.08484
1.08177
1.07869
1.0756
1.07249
1.06938
1.06625
1.06311
1.05995
1.05679
1.05361
1.05042
1.04722
1.044
1.04078
1.03754
1.03428
1.03102
1.02774
1.02445
1.02115
1.01784
1.01451
1.01117
1.00782
1.00445
1.00107
0.997677
0.994272
0.990853
0.987421
0.983976
0.980518
0.977047
0.973562
0.970064
0.966552
0.963027
0.959488
0.955935
0.952369
0.948789
0.945196
0.941588
0.937967
0.934331
0.930682
0.927018
0.923341
0.919649
0.915943
0.912223
0.908489
0.90474
0.900976
0.897199
0.893406
0.889599
0.885778
0.881941
0.87809
0.874224
0.870343
0.866448
0.862537
0.858611
0.85467
0.850714
0.846742
0.842756
0.838754
0.834736
0.830703
0.826655
0.822591
0.818511
0.814415
0.810304
0.806177
0.802034
0.797875
0.793701
0.78951
0.785302
0.781079
0.77684
0.772584
0.768311
0.764023
0.759717
0.755395
0.751057
0.746702
0.74233
0.737941
0.733535
0.729112
0.724673
0.720216
0.715742
0.711251
0.706742
0.702216
0.697673
0.693112
0.688534
0.683938
0.679324
0.674692
0.670043
0.665376
0.660691
0.655987
0.651266
0.646527
0.641769
0.636993
0.632198
0.627385
0.622554
0.617703
0.612835
0.607947
0.603041
0.598115
0.593171
0.588208
0.583225
0.578224
0.573203
0.568163
0.563103
0.558024
0.552925
0.547807
0.542669
0.537511
0.532334
0.527136
0.521918
0.516681
0.511423
0.506145
0.500846
0.495527
0.490188
0.484828
0.479447
0.474046
0.468624
0.463181
0.457717
0.452232
0.446726
0.441199
0.43565
0.43008
0.424489
0.418876
0.413241
0.407585
0.401907
0.396207
0.390485
0.384741
0.378975
0.373187
0.367376
0.361543
0.355688
0.34981
0.343909
0.337986
0.33204
0.326071
0.320079
0.314064
0.308025
0.301964
0.295879
0.289771
0.283639
0.277484
0.271304
0.265101
0.258875
0.252624
0.246349
0.24005
0.233727
0.227379
0.221007
0.21461
0.208189
0.201743
0.195272
0.188776
0.182255
0.175709
0.169138
0.162542
0.15592
0.149273
0.1426
0.135901
0.129177
0.122426
0.11565
0.108848
0.102019
0.0951641
0.0882828
0.0813749
0.0744405
0.0674793
0.0604914
0.0534765
0.0464346
0.0393656
0.0322694
0.0251458
0.0179948
0.0108163
0.00361004
1.9273
1.92733
1.92731
1.92722
1.92706
1.92685
1.92658
1.92624
1.92585
1.92539
1.92487
1.92429
1.92365
1.92294
1.92218
1.92135
1.92047
1.91952
1.91852
1.91745
1.91633
1.91515
1.91392
1.91263
1.91128
1.90988
1.90843
1.90693
1.90538
1.90378
1.90213
1.90044
1.8987
1.89692
1.89509
1.89323
1.89133
1.88938
1.88741
1.88539
1.88335
1.88127
1.87916
1.87702
1.87485
1.87265
1.87043
1.86819
1.86592
1.86364
1.86133
1.859
1.85666
1.85429
1.85192
1.84953
1.84712
1.8447
1.84228
1.83984
1.83739
1.83493
1.83247
1.83
1.82752
1.82504
1.82256
1.82007
1.81758
1.81509
1.81259
1.81009
1.8076
1.8051
1.80261
1.80011
1.79762
1.79513
1.79264
1.79016
1.78768
1.7852
1.78272
1.78025
1.77779
1.77533
1.77287
1.77042
1.76798
1.76554
1.76311
1.76068
1.75826
1.75584
1.75343
1.75103
1.74863
1.74624
1.74386
1.74148
1.73911
1.73675
1.73439
1.73204
1.7297
1.72736
1.72503
1.72271
1.72039
1.71808
1.71577
1.71347
1.71118
1.70889
1.70661
1.70434
1.70207
1.6998
1.69755
1.69529
1.69305
1.69081
1.68857
1.68634
1.68411
1.68189
1.67967
1.67746
1.67526
1.67305
1.67085
1.66866
1.66647
1.66428
1.6621
1.65992
1.65774
1.65557
1.6534
1.65124
1.64908
1.64692
1.64476
1.6426
1.64045
1.6383
1.63616
1.63401
1.63187
1.62973
1.62759
1.62546
1.62332
1.62119
1.61906
1.61693
1.6148
1.61267
1.61054
1.60842
1.60629
1.60417
1.60205
1.59992
1.5978
1.59568
1.59356
1.59144
1.58932
1.5872
1.58508
1.58296
1.58084
1.57872
1.5766
1.57448
1.57236
1.57024
1.56812
1.56599
1.56387
1.56175
1.55962
1.5575
1.55537
1.55325
1.55112
1.54899
1.54686
1.54473
1.5426
1.54046
1.53833
1.53619
1.53405
1.53192
1.52978
1.52763
1.52549
1.52334
1.5212
1.51905
1.5169
1.51475
1.51259
1.51044
1.50828
1.50612
1.50396
1.50179
1.49963
1.49746
1.49529
1.49312
1.49094
1.48876
1.48659
1.4844
1.48222
1.48003
1.47784
1.47565
1.47346
1.47126
1.46906
1.46686
1.46465
1.46245
1.46023
1.45802
1.45581
1.45359
1.45136
1.44914
1.44691
1.44468
1.44245
1.44021
1.43797
1.43573
1.43348
1.43123
1.42898
1.42672
1.42446
1.4222
1.41993
1.41766
1.41539
1.41311
1.41083
1.40855
1.40626
1.40397
1.40168
1.39938
1.39708
1.39477
1.39246
1.39015
1.38783
1.38551
1.38319
1.38086
1.37853
1.37619
1.37385
1.37151
1.36916
1.36681
1.36445
1.36209
1.35973
1.35736
1.35499
1.35261
1.35023
1.34785
1.34546
1.34307
1.34067
1.33827
1.33587
1.33346
1.33104
1.32862
1.3262
1.32378
1.32134
1.31891
1.31647
1.31403
1.31158
1.30913
1.30667
1.30421
1.30174
1.29927
1.2968
1.29432
1.29183
1.28935
1.28685
1.28436
1.28185
1.27935
1.27684
1.27432
1.2718
1.26928
1.26675
1.26421
1.26167
1.25913
1.25658
1.25402
1.25147
1.2489
1.24633
1.24376
1.24118
1.23859
1.236
1.2334
1.2308
1.22819
1.22558
1.22296
1.22033
1.2177
1.21506
1.21242
1.20977
1.20711
1.20445
1.20177
1.1991
1.19641
1.19372
1.19102
1.18831
1.1856
1.18288
1.18015
1.17741
1.17467
1.17191
1.16915
1.16638
1.1636
1.16081
1.15802
1.15521
1.1524
1.14957
1.14674
1.1439
1.14104
1.13818
1.13531
1.13243
1.12953
1.12663
1.12372
1.12079
1.11786
1.11491
1.11195
1.10899
1.10601
1.10302
1.10002
1.09701
1.09398
1.09095
1.0879
1.08484
1.08177
1.07869
1.0756
1.07249
1.06938
1.06625
1.06311
1.05995
1.05679
1.05361
1.05042
1.04722
1.044
1.04078
1.03754
1.03428
1.03102
1.02774
1.02445
1.02115
1.01784
1.01451
1.01117
1.00782
1.00445
1.00107
0.997677
0.994272
0.990853
0.987421
0.983976
0.980518
0.977047
0.973562
0.970064
0.966552
0.963027
0.959488
0.955935
0.952369
0.948789
0.945196
0.941588
0.937967
0.934331
0.930682
0.927018
0.923341
0.919649
0.915943
0.912223
0.908489
0.90474
0.900976
0.897199
0.893406
0.889599
0.885778
0.881941
0.87809
0.874224
0.870343
0.866448
0.862537
0.858611
0.85467
0.850714
0.846742
0.842756
0.838754
0.834736
0.830703
0.826655
0.822591
0.818511
0.814415
0.810304
0.806177
0.802034
0.797875
0.793701
0.78951
0.785302
0.781079
0.77684
0.772584
0.768311
0.764023
0.759717
0.755395
0.751057
0.746702
0.74233
0.737941
0.733535
0.729112
0.724673
0.720216
0.715742
0.711251
0.706742
0.702216
0.697673
0.693112
0.688534
0.683938
0.679324
0.674692
0.670043
0.665376
0.660691
0.655987
0.651266
0.646527
0.641769
0.636993
0.632198
0.627385
0.622554
0.617703
0.612835
0.607947
0.603041
0.598115
0.593171
0.588208
0.583225
0.578224
0.573203
0.568163
0.563103
0.558024
0.552925
0.547807
0.542669
0.537511
0.532334
0.527136
0.521918
0.516681
0.511423
0.506145
0.500846
0.495527
0.490188
0.484828
0.479447
0.474046
0.468624
0.463181
0.457717
0.452232
0.446726
0.441199
0.43565
0.43008
0.424489
0.418876
0.413241
0.407585
0.401907
0.396207
0.390485
0.384741
0.378975
0.373187
0.367376
0.361543
0.355688
0.34981
0.343909
0.337986
0.33204
0.326071
0.320079
0.314064
0.308025
0.301964
0.295879
0.289771
0.283639
0.277484
0.271304
0.265101
0.258875
0.252624
0.246349
0.24005
0.233727
0.227379
0.221007
0.21461
0.208189
0.201743
0.195272
0.188776
0.182255
0.175709
0.169138
0.162542
0.15592
0.149273
0.1426
0.135901
0.129177
0.122426
0.11565
0.108848
0.102019
0.0951641
0.0882828
0.0813749
0.0744405
0.0674793
0.0604914
0.0534765
0.0464346
0.0393656
0.0322694
0.0251458
0.0179948
0.0108163
0.00361004
1.92891
1.92894
1.92892
1.92883
1.92867
1.92844
1.92816
1.92781
1.9274
1.92692
1.92638
1.92578
1.92511
1.92438
1.92358
1.92273
1.92181
1.92083
1.91979
1.91869
1.91752
1.91631
1.91503
1.9137
1.91231
1.91087
1.90937
1.90783
1.90623
1.90459
1.90289
1.90116
1.89937
1.89755
1.89568
1.89377
1.89182
1.88984
1.88782
1.88577
1.88368
1.88156
1.87942
1.87724
1.87504
1.87281
1.87056
1.86828
1.86598
1.86367
1.86133
1.85898
1.85661
1.85422
1.85182
1.84941
1.84698
1.84454
1.8421
1.83964
1.83718
1.83471
1.83223
1.82974
1.82726
1.82476
1.82227
1.81977
1.81727
1.81477
1.81227
1.80976
1.80726
1.80476
1.80226
1.79976
1.79726
1.79477
1.79228
1.78979
1.78731
1.78483
1.78236
1.77989
1.77742
1.77496
1.77251
1.77006
1.76762
1.76518
1.76275
1.76032
1.7579
1.75549
1.75308
1.75069
1.74829
1.74591
1.74353
1.74115
1.73879
1.73643
1.73407
1.73173
1.72939
1.72705
1.72473
1.72241
1.72009
1.71778
1.71548
1.71319
1.7109
1.70862
1.70634
1.70407
1.7018
1.69955
1.69729
1.69504
1.6928
1.69056
1.68833
1.6861
1.68388
1.68167
1.67945
1.67724
1.67504
1.67284
1.67065
1.66846
1.66627
1.66409
1.66191
1.65973
1.65756
1.65539
1.65322
1.65106
1.6489
1.64675
1.64459
1.64244
1.64029
1.63815
1.636
1.63386
1.63172
1.62958
1.62745
1.62531
1.62318
1.62105
1.61892
1.61679
1.61467
1.61254
1.61042
1.6083
1.60617
1.60405
1.60193
1.59981
1.59769
1.59557
1.59345
1.59133
1.58922
1.5871
1.58498
1.58286
1.58074
1.57863
1.57651
1.57439
1.57227
1.57015
1.56803
1.56591
1.56379
1.56166
1.55954
1.55742
1.55529
1.55317
1.55104
1.54891
1.54679
1.54466
1.54252
1.54039
1.53826
1.53612
1.53399
1.53185
1.52971
1.52757
1.52543
1.52328
1.52114
1.51899
1.51684
1.51469
1.51254
1.51038
1.50822
1.50607
1.5039
1.50174
1.49958
1.49741
1.49524
1.49307
1.49089
1.48872
1.48654
1.48436
1.48217
1.47999
1.4778
1.47561
1.47341
1.47122
1.46902
1.46682
1.46461
1.46241
1.4602
1.45798
1.45577
1.45355
1.45133
1.4491
1.44688
1.44465
1.44241
1.44018
1.43794
1.43569
1.43345
1.4312
1.42895
1.42669
1.42443
1.42217
1.4199
1.41763
1.41536
1.41308
1.4108
1.40852
1.40623
1.40394
1.40165
1.39935
1.39705
1.39475
1.39244
1.39012
1.38781
1.38549
1.38316
1.38084
1.37851
1.37617
1.37383
1.37149
1.36914
1.36679
1.36443
1.36207
1.35971
1.35734
1.35497
1.35259
1.35021
1.34783
1.34544
1.34305
1.34065
1.33825
1.33585
1.33344
1.33102
1.32861
1.32618
1.32376
1.32133
1.31889
1.31645
1.31401
1.31156
1.30911
1.30665
1.30419
1.30173
1.29926
1.29678
1.2943
1.29182
1.28933
1.28684
1.28434
1.28184
1.27933
1.27682
1.27431
1.27179
1.26926
1.26673
1.2642
1.26166
1.25912
1.25657
1.25401
1.25145
1.24889
1.24632
1.24374
1.24116
1.23858
1.23599
1.23339
1.23079
1.22818
1.22557
1.22295
1.22032
1.21769
1.21505
1.21241
1.20976
1.2071
1.20444
1.20177
1.19909
1.19641
1.19371
1.19102
1.18831
1.1856
1.18287
1.18014
1.17741
1.17466
1.17191
1.16915
1.16638
1.1636
1.16081
1.15801
1.15521
1.15239
1.14957
1.14674
1.14389
1.14104
1.13818
1.13531
1.13242
1.12953
1.12663
1.12371
1.12079
1.11786
1.11491
1.11195
1.10899
1.10601
1.10302
1.10002
1.09701
1.09398
1.09095
1.0879
1.08484
1.08177
1.07869
1.0756
1.07249
1.06938
1.06625
1.06311
1.05995
1.05679
1.05361
1.05042
1.04722
1.044
1.04078
1.03754
1.03428
1.03102
1.02774
1.02445
1.02115
1.01784
1.01451
1.01117
1.00782
1.00445
1.00107
0.997677
0.994272
0.990853
0.987421
0.983976
0.980518
0.977047
0.973562
0.970064
0.966552
0.963027
0.959488
0.955935
0.952369
0.948789
0.945196
0.941588
0.937967
0.934331
0.930682
0.927018
0.923341
0.919649
0.915943
0.912223
0.908489
0.90474
0.900976
0.897199
0.893406
0.889599
0.885778
0.881941
0.87809
0.874224
0.870343
0.866448
0.862537
0.858611
0.85467
0.850714
0.846742
0.842756
0.838754
0.834736
0.830703
0.826655
0.822591
0.818511
0.814415
0.810304
0.806177
0.802034
0.797875
0.793701
0.78951
0.785302
0.781079
0.77684
0.772584
0.768311
0.764023
0.759717
0.755395
0.751057
0.746702
0.74233
0.737941
0.733535
0.729112
0.724673
0.720216
0.715742
0.711251
0.706742
0.702216
0.697673
0.693112
0.688534
0.683938
0.679324
0.674692
0.670043
0.665376
0.660691
0.655987
0.651266
0.646527
0.641769
0.636993
0.632198
0.627385
0.622554
0.617703
0.612835
0.607947
0.603041
0.598115
0.593171
0.588208
0.583225
0.578224
0.573203
0.568163
0.563103
0.558024
0.552925
0.547807
0.542669
0.537511
0.532334
0.527136
0.521918
0.516681
0.511423
0.506145
0.500846
0.495527
0.490188
0.484828
0.479447
0.474046
0.468624
0.463181
0.457717
0.452232
0.446726
0.441199
0.43565
0.43008
0.424489
0.418876
0.413241
0.407585
0.401907
0.396207
0.390485
0.384741
0.378975
0.373187
0.367376
0.361543
0.355688
0.34981
0.343909
0.337986
0.33204
0.326071
0.320079
0.314064
0.308025
0.301964
0.295879
0.289771
0.283639
0.277484
0.271304
0.265101
0.258875
0.252624
0.246349
0.24005
0.233727
0.227379
0.221007
0.21461
0.208189
0.201743
0.195272
0.188776
0.182255
0.175709
0.169138
0.162542
0.15592
0.149273
0.1426
0.135901
0.129177
0.122426
0.11565
0.108848
0.102019
0.0951641
0.0882828
0.0813749
0.0744405
0.0674793
0.0604914
0.0534765
0.0464346
0.0393656
0.0322694
0.0251458
0.0179948
0.0108163
0.00361004
1.93122
1.93126
1.93123
1.93113
1.93096
1.93073
1.93042
1.93005
1.92962
1.92912
1.92854
1.92791
1.9272
1.92643
1.92559
1.92469
1.92372
1.92269
1.9216
1.92044
1.91922
1.91794
1.91661
1.91521
1.91376
1.91226
1.9107
1.90909
1.90743
1.90572
1.90396
1.90216
1.90031
1.89842
1.89649
1.89452
1.89251
1.89047
1.88839
1.88628
1.88414
1.88197
1.87977
1.87754
1.87529
1.87301
1.87071
1.86839
1.86605
1.86369
1.86132
1.85893
1.85652
1.8541
1.85167
1.84922
1.84677
1.8443
1.84183
1.83935
1.83686
1.83437
1.83187
1.82937
1.82687
1.82436
1.82185
1.81934
1.81682
1.81431
1.8118
1.80929
1.80677
1.80427
1.80176
1.79926
1.79676
1.79426
1.79177
1.78928
1.78679
1.78431
1.78184
1.77937
1.7769
1.77444
1.77199
1.76954
1.7671
1.76467
1.76224
1.75982
1.7574
1.75499
1.75259
1.75019
1.74781
1.74542
1.74305
1.74068
1.73832
1.73597
1.73362
1.73128
1.72894
1.72662
1.72429
1.72198
1.71967
1.71737
1.71508
1.71279
1.7105
1.70823
1.70596
1.70369
1.70143
1.69918
1.69693
1.69469
1.69245
1.69022
1.688
1.68578
1.68356
1.68135
1.67914
1.67694
1.67474
1.67255
1.67036
1.66817
1.66599
1.66381
1.66164
1.65947
1.6573
1.65513
1.65297
1.65082
1.64866
1.64651
1.64436
1.64221
1.64007
1.63793
1.63579
1.63365
1.63151
1.62938
1.62725
1.62512
1.62299
1.62086
1.61874
1.61661
1.61449
1.61237
1.61025
1.60813
1.60601
1.60389
1.60177
1.59965
1.59754
1.59542
1.5933
1.59119
1.58907
1.58696
1.58484
1.58272
1.58061
1.57849
1.57638
1.57426
1.57214
1.57003
1.56791
1.56579
1.56367
1.56155
1.55943
1.55731
1.55518
1.55306
1.55094
1.54881
1.54668
1.54456
1.54243
1.5403
1.53816
1.53603
1.5339
1.53176
1.52962
1.52748
1.52534
1.5232
1.52105
1.51891
1.51676
1.51461
1.51246
1.5103
1.50815
1.50599
1.50383
1.50167
1.4995
1.49734
1.49517
1.493
1.49083
1.48865
1.48647
1.48429
1.48211
1.47993
1.47774
1.47555
1.47336
1.47116
1.46896
1.46676
1.46456
1.46235
1.46014
1.45793
1.45572
1.4535
1.45128
1.44905
1.44683
1.4446
1.44236
1.44013
1.43789
1.43565
1.4334
1.43115
1.4289
1.42665
1.42439
1.42213
1.41986
1.41759
1.41532
1.41304
1.41077
1.40848
1.4062
1.40391
1.40161
1.39932
1.39702
1.39471
1.3924
1.39009
1.38778
1.38546
1.38313
1.3808
1.37847
1.37614
1.3738
1.37146
1.36911
1.36676
1.3644
1.36204
1.35968
1.35731
1.35494
1.35257
1.35019
1.3478
1.34542
1.34302
1.34063
1.33823
1.33582
1.33341
1.331
1.32858
1.32616
1.32373
1.3213
1.31887
1.31643
1.31399
1.31154
1.30909
1.30663
1.30417
1.3017
1.29923
1.29676
1.29428
1.2918
1.28931
1.28682
1.28432
1.28182
1.27932
1.2768
1.27429
1.27177
1.26925
1.26672
1.26418
1.26164
1.2591
1.25655
1.254
1.25144
1.24887
1.2463
1.24373
1.24115
1.23856
1.23597
1.23338
1.23078
1.22817
1.22556
1.22294
1.22031
1.21768
1.21504
1.2124
1.20975
1.20709
1.20443
1.20176
1.19908
1.1964
1.19371
1.19101
1.1883
1.18559
1.18287
1.18014
1.1774
1.17466
1.1719
1.16914
1.16637
1.16359
1.16081
1.15801
1.1552
1.15239
1.14957
1.14673
1.14389
1.14104
1.13818
1.1353
1.13242
1.12953
1.12663
1.12371
1.12079
1.11785
1.11491
1.11195
1.10899
1.10601
1.10302
1.10002
1.09701
1.09398
1.09095
1.0879
1.08484
1.08177
1.07869
1.0756
1.07249
1.06938
1.06625
1.06311
1.05995
1.05679
1.05361
1.05042
1.04722
1.044
1.04078
1.03754
1.03428
1.03102
1.02774
1.02445
1.02115
1.01784
1.01451
1.01117
1.00782
1.00445
1.00107
0.997677
0.994272
0.990853
0.987421
0.983976
0.980518
0.977047
0.973562
0.970064
0.966552
0.963027
0.959488
0.955935
0.952369
0.948789
0.945196
0.941588
0.937967
0.934331
0.930682
0.927018
0.923341
0.919649
0.915943
0.912223
0.908489
0.90474
0.900976
0.897199
0.893406
0.889599
0.885778
0.881941
0.87809
0.874224
0.870343
0.866448
0.862537
0.858611
0.85467
0.850714
0.846742
0.842756
0.838754
0.834736
0.830703
0.826655
0.822591
0.818511
0.814415
0.810304
0.806177
0.802034
0.797875
0.793701
0.78951
0.785302
0.781079
0.77684
0.772584
0.768311
0.764023
0.759717
0.755395
0.751057
0.746702
0.74233
0.737941
0.733535
0.729112
0.724673
0.720216
0.715742
0.711251
0.706742
0.702216
0.697673
0.693112
0.688534
0.683938
0.679324
0.674692
0.670043
0.665376
0.660691
0.655987
0.651266
0.646527
0.641769
0.636993
0.632198
0.627385
0.622554
0.617703
0.612835
0.607947
0.603041
0.598115
0.593171
0.588208
0.583225
0.578224
0.573203
0.568163
0.563103
0.558024
0.552925
0.547807
0.542669
0.537511
0.532334
0.527136
0.521918
0.516681
0.511423
0.506145
0.500846
0.495527
0.490188
0.484828
0.479447
0.474046
0.468624
0.463181
0.457717
0.452232
0.446726
0.441199
0.43565
0.43008
0.424489
0.418876
0.413241
0.407585
0.401907
0.396207
0.390485
0.384741
0.378975
0.373187
0.367376
0.361543
0.355688
0.34981
0.343909
0.337986
0.33204
0.326071
0.320079
0.314064
0.308025
0.301964
0.295879
0.289771
0.283639
0.277484
0.271304
0.265101
0.258875
0.252624
0.246349
0.24005
0.233727
0.227379
0.221007
0.21461
0.208189
0.201743
0.195272
0.188776
0.182255
0.175709
0.169138
0.162542
0.15592
0.149273
0.1426
0.135901
0.129177
0.122426
0.11565
0.108848
0.102019
0.0951641
0.0882828
0.0813749
0.0744405
0.0674793
0.0604914
0.0534765
0.0464346
0.0393656
0.0322694
0.0251458
0.0179948
0.0108162
0.00361004
1.93419
1.93422
1.93419
1.93409
1.9339
1.93365
1.93333
1.93293
1.93246
1.93192
1.93131
1.93063
1.92987
1.92905
1.92815
1.92719
1.92616
1.92506
1.92389
1.92266
1.92137
1.92002
1.9186
1.91712
1.91559
1.914
1.91236
1.91067
1.90892
1.90713
1.90529
1.9034
1.90147
1.8995
1.89749
1.89544
1.89335
1.89123
1.88908
1.8869
1.88468
1.88244
1.88018
1.87788
1.87557
1.87323
1.87088
1.8685
1.86611
1.8637
1.86127
1.85883
1.85638
1.85392
1.85145
1.84897
1.84647
1.84398
1.84147
1.83896
1.83645
1.83393
1.83141
1.82888
1.82635
1.82383
1.8213
1.81877
1.81624
1.81372
1.81119
1.80867
1.80615
1.80363
1.80112
1.79861
1.7961
1.7936
1.79111
1.78861
1.78613
1.78365
1.78117
1.7787
1.77624
1.77378
1.77133
1.76889
1.76645
1.76402
1.76159
1.75918
1.75676
1.75436
1.75196
1.74958
1.74719
1.74482
1.74245
1.74009
1.73773
1.73539
1.73305
1.73071
1.72839
1.72607
1.72375
1.72145
1.71915
1.71685
1.71456
1.71228
1.71001
1.70774
1.70548
1.70322
1.70097
1.69872
1.69648
1.69425
1.69202
1.6898
1.68758
1.68536
1.68315
1.68095
1.67875
1.67655
1.67436
1.67218
1.66999
1.66781
1.66564
1.66347
1.6613
1.65914
1.65697
1.65482
1.65266
1.65051
1.64836
1.64621
1.64407
1.64193
1.63979
1.63765
1.63552
1.63339
1.63126
1.62913
1.627
1.62487
1.62275
1.62063
1.61851
1.61639
1.61427
1.61215
1.61003
1.60792
1.6058
1.60369
1.60157
1.59946
1.59735
1.59523
1.59312
1.59101
1.58889
1.58678
1.58467
1.58256
1.58044
1.57833
1.57622
1.5741
1.57199
1.56988
1.56776
1.56564
1.56353
1.56141
1.55929
1.55717
1.55505
1.55293
1.55081
1.54868
1.54656
1.54443
1.54231
1.54018
1.53805
1.53592
1.53378
1.53165
1.52951
1.52738
1.52524
1.5231
1.52095
1.51881
1.51666
1.51451
1.51236
1.51021
1.50806
1.5059
1.50374
1.50158
1.49942
1.49725
1.49509
1.49292
1.49075
1.48857
1.4864
1.48422
1.48204
1.47985
1.47767
1.47548
1.47328
1.47109
1.46889
1.46669
1.46449
1.46229
1.46008
1.45787
1.45565
1.45344
1.45122
1.44899
1.44677
1.44454
1.44231
1.44007
1.43783
1.43559
1.43335
1.4311
1.42885
1.4266
1.42434
1.42208
1.41981
1.41754
1.41527
1.413
1.41072
1.40844
1.40615
1.40386
1.40157
1.39927
1.39697
1.39467
1.39236
1.39005
1.38774
1.38542
1.38309
1.38077
1.37844
1.3761
1.37376
1.37142
1.36907
1.36672
1.36437
1.36201
1.35965
1.35728
1.35491
1.35253
1.35016
1.34777
1.34538
1.34299
1.3406
1.3382
1.33579
1.33338
1.33097
1.32855
1.32613
1.32371
1.32128
1.31884
1.3164
1.31396
1.31151
1.30906
1.3066
1.30414
1.30168
1.29921
1.29674
1.29426
1.29177
1.28929
1.2868
1.2843
1.2818
1.27929
1.27678
1.27427
1.27175
1.26922
1.26669
1.26416
1.26162
1.25908
1.25653
1.25398
1.25142
1.24885
1.24629
1.24371
1.24113
1.23855
1.23596
1.23336
1.23076
1.22815
1.22554
1.22292
1.2203
1.21767
1.21503
1.21239
1.20974
1.20708
1.20442
1.20175
1.19907
1.19639
1.1937
1.191
1.18829
1.18558
1.18286
1.18013
1.17739
1.17465
1.1719
1.16914
1.16637
1.16359
1.1608
1.15801
1.1552
1.15239
1.14956
1.14673
1.14389
1.14104
1.13817
1.1353
1.13242
1.12953
1.12662
1.12371
1.12079
1.11785
1.11491
1.11195
1.10899
1.10601
1.10302
1.10002
1.09701
1.09398
1.09095
1.0879
1.08484
1.08177
1.07869
1.0756
1.07249
1.06938
1.06625
1.06311
1.05995
1.05679
1.05361
1.05042
1.04722
1.044
1.04078
1.03754
1.03428
1.03102
1.02774
1.02445
1.02115
1.01784
1.01451
1.01117
1.00782
1.00445
1.00107
0.997677
0.994272
0.990853
0.987421
0.983976
0.980518
0.977047
0.973562
0.970064
0.966552
0.963027
0.959488
0.955935
0.952369
0.948789
0.945196
0.941588
0.937967
0.934331
0.930682
0.927018
0.923341
0.919649
0.915943
0.912223
0.908489
0.90474
0.900976
0.897199
0.893406
0.889599
0.885778
0.881941
0.87809
0.874224
0.870343
0.866448
0.862537
0.858611
0.85467
0.850714
0.846742
0.842756
0.838754
0.834736
0.830703
0.826655
0.822591
0.818511
0.814415
0.810304
0.806177
0.802034
0.797875
0.793701
0.78951
0.785302
0.781079
0.77684
0.772584
0.768311
0.764023
0.759717
0.755395
0.751057
0.746702
0.74233
0.737941
0.733535
0.729112
0.724673
0.720216
0.715742
0.711251
0.706742
0.702216
0.697673
0.693112
0.688534
0.683938
0.679324
0.674692
0.670043
0.665376
0.660691
0.655987
0.651266
0.646527
0.641769
0.636993
0.632198
0.627385
0.622554
0.617703
0.612835
0.607947
0.603041
0.598115
0.593171
0.588208
0.583225
0.578224
0.573203
0.568163
0.563103
0.558024
0.552925
0.547807
0.542669
0.537511
0.532334
0.527136
0.521918
0.516681
0.511423
0.506145
0.500846
0.495527
0.490188
0.484828
0.479447
0.474046
0.468624
0.463181
0.457717
0.452232
0.446726
0.441199
0.43565
0.43008
0.424489
0.418876
0.413241
0.407585
0.401907
0.396207
0.390485
0.384741
0.378975
0.373187
0.367376
0.361543
0.355688
0.34981
0.343909
0.337986
0.33204
0.326071
0.320079
0.314064
0.308025
0.301964
0.295879
0.289771
0.283639
0.277484
0.271304
0.265101
0.258875
0.252624
0.246349
0.24005
0.233727
0.227379
0.221007
0.21461
0.208189
0.201743
0.195272
0.188776
0.182255
0.175709
0.169138
0.162542
0.15592
0.149273
0.1426
0.135901
0.129177
0.122426
0.11565
0.108848
0.102019
0.0951641
0.0882828
0.0813749
0.0744405
0.0674793
0.0604914
0.0534765
0.0464346
0.0393656
0.0322694
0.0251458
0.0179948
0.0108162
0.00361003
1.93777
1.93781
1.93778
1.93766
1.93746
1.93719
1.93683
1.9364
1.9359
1.93531
1.93465
1.9339
1.93309
1.93219
1.93123
1.93019
1.92907
1.92789
1.92664
1.92531
1.92393
1.92247
1.92096
1.91939
1.91775
1.91606
1.91431
1.91252
1.91067
1.90877
1.90683
1.90484
1.90281
1.90074
1.89863
1.89649
1.89431
1.8921
1.88985
1.88758
1.88528
1.88296
1.88061
1.87825
1.87586
1.87345
1.87102
1.86858
1.86613
1.86366
1.86117
1.85868
1.85618
1.85367
1.85115
1.84862
1.84609
1.84355
1.84101
1.83847
1.83592
1.83337
1.83082
1.82827
1.82572
1.82317
1.82062
1.81808
1.81553
1.81299
1.81046
1.80792
1.80539
1.80287
1.80034
1.79783
1.79532
1.79281
1.79031
1.78782
1.78533
1.78285
1.78037
1.77791
1.77544
1.77299
1.77054
1.7681
1.76567
1.76324
1.76082
1.75841
1.75601
1.75361
1.75122
1.74884
1.74647
1.7441
1.74174
1.73939
1.73704
1.7347
1.73237
1.73005
1.72773
1.72542
1.72311
1.72082
1.71853
1.71624
1.71396
1.71169
1.70943
1.70717
1.70491
1.70267
1.70043
1.69819
1.69596
1.69373
1.69151
1.6893
1.68709
1.68488
1.68268
1.68049
1.6783
1.67611
1.67393
1.67175
1.66957
1.6674
1.66523
1.66307
1.66091
1.65875
1.6566
1.65445
1.6523
1.65016
1.64801
1.64587
1.64374
1.6416
1.63947
1.63734
1.63521
1.63308
1.63096
1.62884
1.62671
1.62459
1.62248
1.62036
1.61824
1.61613
1.61401
1.6119
1.60979
1.60768
1.60557
1.60346
1.60135
1.59924
1.59713
1.59502
1.59291
1.5908
1.58869
1.58658
1.58448
1.58237
1.58026
1.57815
1.57604
1.57393
1.57182
1.5697
1.56759
1.56548
1.56336
1.56125
1.55913
1.55702
1.5549
1.55278
1.55066
1.54854
1.54642
1.5443
1.54217
1.54004
1.53792
1.53579
1.53366
1.53152
1.52939
1.52726
1.52512
1.52298
1.52084
1.5187
1.51655
1.5144
1.51226
1.51011
1.50795
1.5058
1.50364
1.50148
1.49932
1.49716
1.49499
1.49283
1.49066
1.48848
1.48631
1.48413
1.48195
1.47977
1.47758
1.4754
1.47321
1.47101
1.46882
1.46662
1.46442
1.46221
1.46001
1.4578
1.45558
1.45337
1.45115
1.44893
1.4467
1.44448
1.44224
1.44001
1.43777
1.43553
1.43329
1.43104
1.42879
1.42654
1.42428
1.42202
1.41976
1.41749
1.41522
1.41295
1.41067
1.40839
1.4061
1.40381
1.40152
1.39923
1.39693
1.39462
1.39232
1.39001
1.38769
1.38537
1.38305
1.38072
1.37839
1.37606
1.37372
1.37138
1.36903
1.36668
1.36433
1.36197
1.35961
1.35724
1.35487
1.3525
1.35012
1.34774
1.34535
1.34296
1.34056
1.33816
1.33576
1.33335
1.33094
1.32852
1.3261
1.32367
1.32125
1.31881
1.31637
1.31393
1.31148
1.30903
1.30658
1.30412
1.30165
1.29918
1.29671
1.29423
1.29175
1.28926
1.28677
1.28427
1.28177
1.27927
1.27676
1.27424
1.27172
1.2692
1.26667
1.26414
1.2616
1.25906
1.25651
1.25396
1.2514
1.24883
1.24627
1.24369
1.24111
1.23853
1.23594
1.23334
1.23074
1.22814
1.22552
1.22291
1.22028
1.21765
1.21501
1.21237
1.20972
1.20707
1.2044
1.20173
1.19906
1.19638
1.19369
1.19099
1.18828
1.18557
1.18285
1.18012
1.17739
1.17464
1.17189
1.16913
1.16636
1.16358
1.1608
1.158
1.1552
1.15238
1.14956
1.14673
1.14388
1.14103
1.13817
1.1353
1.13242
1.12952
1.12662
1.12371
1.12079
1.11785
1.11491
1.11195
1.10898
1.10601
1.10302
1.10002
1.097
1.09398
1.09095
1.0879
1.08484
1.08177
1.07869
1.0756
1.07249
1.06938
1.06625
1.06311
1.05995
1.05679
1.05361
1.05042
1.04722
1.044
1.04078
1.03754
1.03429
1.03102
1.02774
1.02445
1.02115
1.01784
1.01451
1.01117
1.00782
1.00445
1.00107
0.997677
0.994272
0.990853
0.987421
0.983976
0.980518
0.977047
0.973562
0.970064
0.966552
0.963027
0.959488
0.955935
0.952369
0.948789
0.945196
0.941588
0.937967
0.934331
0.930682
0.927018
0.923341
0.919649
0.915943
0.912223
0.908489
0.90474
0.900976
0.897199
0.893406
0.889599
0.885778
0.881941
0.87809
0.874224
0.870343
0.866448
0.862537
0.858611
0.85467
0.850714
0.846742
0.842756
0.838754
0.834736
0.830703
0.826655
0.822591
0.818511
0.814415
0.810304
0.806177
0.802034
0.797875
0.793701
0.78951
0.785302
0.781079
0.77684
0.772584
0.768311
0.764023
0.759717
0.755395
0.751057
0.746702
0.74233
0.737941
0.733535
0.729112
0.724673
0.720216
0.715742
0.711251
0.706742
0.702216
0.697673
0.693112
0.688534
0.683938
0.679324
0.674692
0.670043
0.665376
0.660691
0.655987
0.651266
0.646527
0.641769
0.636993
0.632198
0.627385
0.622554
0.617703
0.612835
0.607947
0.603041
0.598115
0.593171
0.588208
0.583225
0.578224
0.573203
0.568163
0.563103
0.558024
0.552925
0.547807
0.542669
0.537511
0.532334
0.527136
0.521918
0.516681
0.511423
0.506145
0.500846
0.495527
0.490188
0.484828
0.479447
0.474046
0.468624
0.463181
0.457717
0.452232
0.446726
0.441199
0.43565
0.43008
0.424489
0.418876
0.413241
0.407585
0.401907
0.396207
0.390485
0.384741
0.378975
0.373187
0.367376
0.361543
0.355688
0.34981
0.343909
0.337986
0.33204
0.326071
0.320079
0.314064
0.308025
0.301964