/*--------------------------------*- C++ -*----------------------------------*\
  =========                 |
  \\      /  F ield         | OpenFOAM: The Open Source CFD Toolbox
   \\    /   O peration     | Website:  https://openfoam.org
    \\  /    A nd           | Version:  7
     \\/     M anipulation  |
\*---------------------------------------------------------------------------*/
FoamFile
{
    version     2.0;
    format      ascii;
    class       surfaceScalarField;
    location    "4";
    object      phi;
}
// * * * * * * * * * * * * * * * * * * * * * * * * * * * * * * * * * * * * * //

dimensions      [0 3 -1 0 0 0 0];

internalField   nonuniform List<scalar> 
95320
(
0.00250152
-7.10059e-08
2.03099e-13
0.00250174
-2.14568e-07
3.41812e-13
0.0025021
-3.599e-07
2.3308e-13
0.0025026
-5.06712e-07
1.06272e-13
0.00250326
-6.54801e-07
5.50933e-14
0.00250406
-8.03959e-07
3.4948e-14
0.00250502
-9.53975e-07
2.4504e-14
0.00250612
-1.10463e-06
1.53788e-14
0.00250738
-1.2557e-06
6.12308e-15
0.00250878
-1.40697e-06
-2.62077e-15
0.00251034
-1.55821e-06
-1.0015e-14
0.00251205
-1.70919e-06
-1.45463e-14
0.00251391
-1.85969e-06
-1.41723e-14
0.00251592
-2.00949e-06
-8.07976e-15
0.00251808
-2.15836e-06
3.1443e-15
0.00252038
-2.30608e-06
1.90466e-14
0.00252284
-2.45244e-06
4.0004e-14
0.00252543
-2.59724e-06
6.58013e-14
0.00252817
-2.74027e-06
9.47267e-14
0.00253106
-2.88134e-06
1.25239e-13
0.00253408
-3.02026e-06
1.57034e-13
0.00253723
-3.15685e-06
1.89227e-13
0.00254052
-3.29095e-06
2.19818e-13
0.00254395
-3.42238e-06
2.47728e-13
0.0025475
-3.55102e-06
2.73588e-13
0.00255117
-3.67671e-06
2.97664e-13
0.00255497
-3.79933e-06
3.19348e-13
0.00255889
-3.91876e-06
3.38143e-13
0.00256293
-4.0349e-06
3.53883e-13
0.00256707
-4.14765e-06
3.66388e-13
0.00257133
-4.25694e-06
3.75734e-13
0.00257569
-4.36269e-06
3.82348e-13
0.00258016
-4.46484e-06
3.86588e-13
0.00258472
-4.56335e-06
3.88516e-13
0.00258938
-4.65818e-06
3.87999e-13
0.00259413
-4.7493e-06
3.85091e-13
0.00259897
-4.83669e-06
3.7997e-13
0.00260389
-4.92036e-06
3.72926e-13
0.00260889
-5.0003e-06
3.6451e-13
0.00261396
-5.07653e-06
3.55143e-13
0.00261911
-5.14906e-06
3.44763e-13
0.00262433
-5.21794e-06
3.33402e-13
0.00262961
-5.28318e-06
3.21265e-13
0.00263496
-5.34485e-06
3.0847e-13
0.00264036
-5.40299e-06
2.95292e-13
0.00264582
-5.45765e-06
2.82121e-13
0.00265133
-5.5089e-06
2.69032e-13
0.00265688
-5.55681e-06
2.55884e-13
0.00266249
-5.60145e-06
2.42746e-13
0.00266813
-5.64289e-06
2.29861e-13
0.00267381
-5.68122e-06
2.17381e-13
0.00267953
-5.71651e-06
2.05528e-13
0.00268528
-5.74886e-06
1.94543e-13
0.00269105
-5.77834e-06
1.84393e-13
0.00269686
-5.80506e-06
1.74958e-13
0.00270269
-5.82909e-06
1.66218e-13
0.00270854
-5.85054e-06
1.58027e-13
0.00271441
-5.86949e-06
1.50177e-13
0.00272029
-5.88603e-06
1.42853e-13
0.00272619
-5.90026e-06
1.36524e-13
0.00273211
-5.91228e-06
1.31489e-13
0.00273803
-5.92216e-06
1.27465e-13
0.00274396
-5.93e-06
1.23545e-13
0.00274989
-5.9359e-06
1.19719e-13
0.00275583
-5.93993e-06
1.14995e-13
0.00276178
-5.94219e-06
1.09278e-13
0.00276772
-5.94277e-06
1.02471e-13
0.00277366
-5.94173e-06
9.47662e-14
0.0027796
-5.93918e-06
8.63134e-14
0.00278554
-5.93518e-06
7.7093e-14
0.00279147
-5.92982e-06
6.67416e-14
0.00279739
-5.92316e-06
5.52562e-14
0.0028033
-5.91529e-06
4.28662e-14
0.00280921
-5.90628e-06
2.99001e-14
0.00281511
-5.89619e-06
1.66825e-14
0.00282099
-5.88508e-06
3.65012e-15
0.00282686
-5.87304e-06
-8.62346e-15
0.00283272
-5.8601e-06
-1.96349e-14
0.00283857
-5.84634e-06
-2.9221e-14
0.0028444
-5.83182e-06
-3.75673e-14
0.00285022
-5.81658e-06
-4.49906e-14
0.00285602
-5.80068e-06
-5.16941e-14
0.0028618
-5.78416e-06
-5.77226e-14
0.00286757
-5.76709e-06
-6.30699e-14
0.00287332
-5.74949e-06
-6.78303e-14
0.00287905
-5.73142e-06
-7.22471e-14
0.00288477
-5.71292e-06
-7.66115e-14
0.00289046
-5.69403e-06
-8.12377e-14
0.00289613
-5.67477e-06
-8.65038e-14
0.00290179
-5.6552e-06
-9.27417e-14
0.00290742
-5.63533e-06
-1.00052e-13
0.00291304
-5.61521e-06
-1.08288e-13
0.00291863
-5.59486e-06
-1.17193e-13
0.00292421
-5.57431e-06
-1.26443e-13
0.00292976
-5.55358e-06
-1.35676e-13
0.0029353
-5.53271e-06
-1.44574e-13
0.00294081
-5.5117e-06
-1.52951e-13
0.0029463
-5.49059e-06
-1.60721e-13
0.00295177
-5.46939e-06
-1.67776e-13
0.00295721
-5.44812e-06
-1.73963e-13
0.00296264
-5.4268e-06
-1.79241e-13
0.00296805
-5.40544e-06
-1.83806e-13
0.00297343
-5.38406e-06
-1.88004e-13
0.00297879
-5.36266e-06
-1.92278e-13
0.00298414
-5.34127e-06
-1.97298e-13
0.00298946
-5.31989e-06
-2.03941e-13
0.00299475
-5.29854e-06
-2.12901e-13
0.00300003
-5.27722e-06
-2.24351e-13
0.00300529
-5.25593e-06
-2.3815e-13
0.00301052
-5.23469e-06
-2.54269e-13
0.00301573
-5.2135e-06
-2.72766e-13
0.00302093
-5.19237e-06
-2.93368e-13
0.0030261
-5.1713e-06
-3.15421e-13
0.00303125
-5.1503e-06
-3.38422e-13
0.00303638
-5.12937e-06
-3.6234e-13
0.00304149
-5.1085e-06
-3.87173e-13
0.00304657
-5.08771e-06
-4.12341e-13
0.00305164
-5.06699e-06
-4.36665e-13
0.00305669
-5.04635e-06
-4.58999e-13
0.00306171
-5.02579e-06
-4.78814e-13
0.00306672
-5.0053e-06
-4.96125e-13
0.0030717
-4.98488e-06
-5.11002e-13
0.00307667
-4.96454e-06
-5.23391e-13
0.00308161
-4.94428e-06
-5.3349e-13
0.00308654
-4.92408e-06
-5.4211e-13
0.00309144
-4.90396e-06
-5.50513e-13
0.00309632
-4.8839e-06
-5.59879e-13
0.00310119
-4.86391e-06
-5.70953e-13
0.00310603
-4.84398e-06
-5.84109e-13
0.00311086
-4.82411e-06
-5.99561e-13
0.00311566
-4.8043e-06
-6.17423e-13
0.00312045
-4.78455e-06
-6.37629e-13
0.00312521
-4.76485e-06
-6.59823e-13
0.00312996
-4.7452e-06
-6.83415e-13
0.00313468
-4.72559e-06
-7.07708e-13
0.00313939
-4.70602e-06
-7.31932e-13
0.00314407
-4.6865e-06
-7.55229e-13
0.00314874
-4.66701e-06
-7.76624e-13
0.00315339
-4.64755e-06
-7.95272e-13
0.00315802
-4.62812e-06
-8.10694e-13
0.00316262
-4.60872e-06
-8.22754e-13
0.00316721
-4.58934e-06
-8.31532e-13
0.00317178
-4.56998e-06
-8.37284e-13
0.00317633
-4.55064e-06
-8.40609e-13
0.00318087
-4.53131e-06
-8.42621e-13
0.00318538
-4.51198e-06
-8.44782e-13
0.00318987
-4.49267e-06
-8.48633e-13
0.00319434
-4.47336e-06
-8.55307e-13
0.0031988
-4.45404e-06
-8.65334e-13
0.00320323
-4.43473e-06
-8.78636e-13
0.00320765
-4.41541e-06
-8.94478e-13
0.00321204
-4.39608e-06
-9.11609e-13
0.00321642
-4.37675e-06
-9.2866e-13
0.00322078
-4.3574e-06
-9.4467e-13
0.00322512
-4.33803e-06
-9.58947e-13
0.00322944
-4.31865e-06
-9.70931e-13
0.00323373
-4.29924e-06
-9.80121e-13
0.00323801
-4.27982e-06
-9.8604e-13
0.00324227
-4.26037e-06
-9.88385e-13
0.00324652
-4.2409e-06
-9.87182e-13
0.00325074
-4.2214e-06
-9.8284e-13
0.00325494
-4.20187e-06
-9.7613e-13
0.00325912
-4.18231e-06
-9.68015e-13
0.00326328
-4.16273e-06
-9.59066e-13
0.00326743
-4.1431e-06
-9.49812e-13
0.00327155
-4.12345e-06
-9.4083e-13
0.00327565
-4.10376e-06
-9.32158e-13
0.00327974
-4.08403e-06
-9.23293e-13
0.0032838
-4.06427e-06
-9.13523e-13
0.00328785
-4.04448e-06
-9.02037e-13
0.00329187
-4.02464e-06
-8.88222e-13
0.00329588
-4.00477e-06
-8.71866e-13
0.00329986
-3.98486e-06
-8.5287e-13
0.00330383
-3.96491e-06
-8.3158e-13
0.00330777
-3.94492e-06
-8.08714e-13
0.0033117
-3.9249e-06
-7.853e-13
0.0033156
-3.90484e-06
-7.62678e-13
0.00331949
-3.88474e-06
-7.42259e-13
0.00332335
-3.8646e-06
-7.25084e-13
0.00332719
-3.84442e-06
-7.11916e-13
0.00333102
-3.82421e-06
-7.03532e-13
0.00333482
-3.80396e-06
-6.99996e-13
0.00333861
-3.78367e-06
-7.00757e-13
0.00334237
-3.76335e-06
-7.04481e-13
0.00334611
-3.74299e-06
-7.09221e-13
0.00334984
-3.7226e-06
-7.12916e-13
0.00335354
-3.70218e-06
-7.13635e-13
0.00335722
-3.68172e-06
-7.10181e-13
0.00336088
-3.66123e-06
-7.01578e-13
0.00336452
-3.64071e-06
-6.87205e-13
0.00336814
-3.62017e-06
-6.67619e-13
0.00337174
-3.59959e-06
-6.44056e-13
0.00337532
-3.57899e-06
-6.18338e-13
0.00337888
-3.55836e-06
-5.93023e-13
0.00338242
-3.53771e-06
-5.6999e-13
0.00338593
-3.51703e-06
-5.50733e-13
0.00338943
-3.49633e-06
-5.36233e-13
0.00339291
-3.47561e-06
-5.26263e-13
0.00339636
-3.45487e-06
-5.19477e-13
0.00339979
-3.43412e-06
-5.13689e-13
0.00340321
-3.41334e-06
-5.06724e-13
0.0034066
-3.39255e-06
-4.96802e-13
0.00340997
-3.37175e-06
-4.81895e-13
0.00341332
-3.35093e-06
-4.6062e-13
0.00341665
-3.3301e-06
-4.32469e-13
0.00341996
-3.30927e-06
-3.982e-13
0.00342325
-3.28842e-06
-3.59998e-13
0.00342652
-3.26757e-06
-3.20637e-13
0.00342976
-3.24671e-06
-2.83271e-13
0.00343299
-3.22585e-06
-2.50331e-13
0.0034362
-3.20498e-06
-2.23967e-13
0.00343938
-3.18411e-06
-2.05385e-13
0.00344254
-3.16325e-06
-1.94522e-13
0.00344569
-3.14238e-06
-1.89721e-13
0.00344881
-3.12152e-06
-1.88517e-13
0.00345191
-3.10066e-06
-1.88114e-13
0.00345499
-3.07981e-06
-1.85516e-13
0.00345805
-3.05896e-06
-1.77857e-13
0.00346108
-3.03812e-06
-1.6325e-13
0.0034641
-3.0173e-06
-1.41381e-13
0.0034671
-2.99648e-06
-1.13501e-13
0.00347007
-2.97567e-06
-8.21329e-14
0.00347303
-2.95488e-06
-5.03428e-14
0.00347596
-2.9341e-06
-2.16323e-14
0.00347888
-2.91333e-06
-4.2553e-16
0.00348177
-2.89259e-06
9.37343e-15
0.00348464
-2.87185e-06
6.11098e-15
0.00348749
-2.85114e-06
-9.29391e-15
0.00349032
-2.83045e-06
-3.38758e-14
0.00349313
-2.80977e-06
-6.43594e-14
0.00349592
-2.78912e-06
-9.76448e-14
0.00349869
-2.76848e-06
-1.29262e-13
0.00350144
-2.74787e-06
-1.53994e-13
0.00350416
-2.72728e-06
-1.68485e-13
0.00350687
-2.70672e-06
-1.72562e-13
0.00350956
-2.68617e-06
-1.69053e-13
0.00351222
-2.66565e-06
-1.60892e-13
0.00351487
-2.64516e-06
-1.48553e-13
0.00351749
-2.62469e-06
-1.33065e-13
0.0035201
-2.60424e-06
-1.20978e-13
0.00352268
-2.58381e-06
-1.23631e-13
0.00352524
-2.56341e-06
-1.35762e-13
0.00352779
-2.54303e-06
-1.57756e-13
0.00353031
-2.52268e-06
-1.78523e-13
0.00353281
-2.50235e-06
-1.99731e-13
0.00353529
-2.48204e-06
-2.24927e-13
0.00353776
-2.46175e-06
-2.47298e-13
0.0035402
-2.44148e-06
-2.5932e-13
0.00354262
-2.42124e-06
-2.61889e-13
0.00354502
-2.40101e-06
-2.61274e-13
0.0035474
-2.38079e-06
-2.53306e-13
0.00354976
-2.36059e-06
-2.46659e-13
0.0035521
-2.34041e-06
-2.36087e-13
0.00355442
-2.32024e-06
-2.28837e-13
0.00355672
-2.30008e-06
-2.32013e-13
0.003559
-2.27993e-06
-2.43096e-13
0.00356126
-2.25978e-06
-2.55183e-13
0.0035635
-2.23963e-06
-2.68204e-13
0.00356572
-2.21949e-06
-2.8865e-13
0.00356792
-2.19934e-06
-3.21015e-13
0.0035701
-2.17919e-06
-3.56062e-13
0.00357226
-2.15903e-06
-3.79915e-13
0.0035744
-2.13886e-06
-3.90047e-13
0.00357652
-2.11867e-06
-3.94381e-13
0.00357861
-2.09846e-06
-3.95873e-13
0.00358069
-2.07822e-06
-3.88639e-13
0.00358275
-2.05796e-06
-3.67264e-13
0.00358479
-2.03767e-06
-3.38762e-13
0.00358681
-2.01733e-06
-3.16824e-13
0.0035888
-1.99696e-06
-3.06349e-13
0.00359078
-1.97654e-06
-3.00172e-13
0.00359274
-1.95606e-06
-2.90162e-13
0.00359467
-1.93553e-06
-2.79653e-13
0.00359659
-1.91493e-06
-2.77472e-13
0.00359848
-1.89426e-06
-2.81557e-13
0.00360035
-1.87352e-06
-2.80394e-13
0.00360221
-1.85269e-06
-2.67294e-13
0.00360404
-1.83178e-06
-2.47014e-13
0.00360585
-1.81077e-06
-2.24723e-13
0.00360764
-1.78966e-06
-1.99652e-13
0.00360941
-1.76845e-06
-1.70774e-13
0.00361115
-1.74713e-06
-1.38761e-13
0.00361288
-1.72568e-06
-1.028e-13
0.00361458
-1.70411e-06
-5.71544e-14
0.00361627
-1.68242e-06
-6.03413e-15
0.00361793
-1.66058e-06
3.51411e-14
0.00361957
-1.6386e-06
6.74695e-14
0.00362118
-1.61648e-06
9.30459e-14
0.00362278
-1.59421e-06
1.03573e-13
0.00362435
-1.57177e-06
1.09348e-13
0.0036259
-1.54918e-06
1.12574e-13
0.00362742
-1.52642e-06
1.18236e-13
0.00362893
-1.50349e-06
1.32891e-13
0.00363041
-1.48039e-06
1.55519e-13
0.00363186
-1.45712e-06
1.88003e-13
0.0036333
-1.43367e-06
2.35979e-13
0.00363471
-1.41004e-06
2.87776e-13
0.00363609
-1.38624e-06
3.32064e-13
0.00363746
-1.36226e-06
3.62402e-13
0.00363879
-1.3381e-06
3.80832e-13
0.00364011
-1.31377e-06
3.94633e-13
0.0036414
-1.28927e-06
4.0802e-13
0.00364266
-1.26459e-06
4.2208e-13
0.0036439
-1.23976e-06
4.39131e-13
0.00364512
-1.21477e-06
4.53772e-13
0.00364631
-1.18963e-06
4.61238e-13
0.00364747
-1.16435e-06
4.6502e-13
0.00364861
-1.13893e-06
4.65829e-13
0.00364972
-1.11338e-06
4.59301e-13
0.00365081
-1.08773e-06
4.40438e-13
0.00365187
-1.06197e-06
4.14025e-13
0.00365291
-1.03612e-06
3.9323e-13
0.00365392
-1.0102e-06
3.83016e-13
0.0036549
-9.84217e-07
3.75201e-13
0.00365586
-9.58191e-07
3.65523e-13
0.00365679
-9.32137e-07
3.58369e-13
0.0036577
-9.06073e-07
3.5708e-13
0.00365858
-8.80018e-07
3.57662e-13
0.00365943
-8.53991e-07
3.56337e-13
0.00366026
-8.28013e-07
3.55169e-13
0.00366106
-8.02104e-07
3.53526e-13
0.00366184
-7.76285e-07
3.46523e-13
0.00366259
-7.50578e-07
3.36305e-13
0.00366332
-7.25006e-07
3.25546e-13
0.00366402
-6.99592e-07
3.10414e-13
0.00366469
-6.74357e-07
2.82838e-13
0.00366534
-6.49327e-07
2.49238e-13
0.00366596
-6.24523e-07
2.14913e-13
0.00366656
-5.99969e-07
1.74012e-13
0.00366714
-5.75688e-07
1.32175e-13
0.00366769
-5.51704e-07
9.95275e-14
0.00366822
-5.28038e-07
8.12751e-14
0.00366872
-5.04714e-07
6.48724e-14
0.00366921
-4.81754e-07
3.15189e-14
0.00366966
-4.59179e-07
-6.71009e-15
0.0036701
-4.3701e-07
-2.37366e-14
0.00367052
-4.15269e-07
-2.78256e-14
0.00367091
-3.93973e-07
-2.79193e-14
0.00367128
-3.73144e-07
-3.67001e-14
0.00367164
-3.52799e-07
-5.13627e-14
0.00367197
-3.32955e-07
-7.79882e-14
0.00367228
-3.1363e-07
-1.05247e-13
0.00367258
-2.94839e-07
-1.19137e-13
0.00367285
-2.76597e-07
-1.20248e-13
0.00367311
-2.58918e-07
-1.22436e-13
0.00367336
-2.41815e-07
-1.41764e-13
0.00367358
-2.253e-07
-1.6697e-13
0.00367379
-2.09383e-07
-1.69734e-13
0.00367398
-1.94074e-07
-1.55063e-13
0.00367416
-1.79381e-07
-1.51456e-13
0.00367433
-1.65312e-07
-1.63659e-13
0.00367448
-1.51872e-07
-1.79709e-13
0.00367462
-1.39065e-07
-1.91616e-13
0.00367475
-1.26893e-07
-1.89273e-13
0.00367486
-1.15358e-07
-1.73557e-13
0.00367497
-1.0446e-07
-1.50883e-13
0.00367506
-9.41946e-08
-1.27455e-13
0.00367515
-8.45588e-08
-1.17644e-13
0.00367522
-7.5546e-08
-1.01e-13
0.00367529
-6.71479e-08
-5.10669e-14
0.00367535
-5.93542e-08
-4.21125e-15
0.0036754
-5.21525e-08
1.46759e-14
0.00367545
-4.55284e-08
2.30241e-14
0.00367548
-3.94655e-08
3.20454e-14
0.00367552
-3.39452e-08
7.80015e-14
0.00367555
-2.89472e-08
1.24007e-13
0.00367557
-2.44494e-08
1.46646e-13
0.00367559
-2.04283e-08
1.79093e-13
0.00367561
-1.68585e-08
1.90157e-13
0.00367562
-1.37138e-08
1.84566e-13
0.00367563
-1.09667e-08
2.06148e-13
0.00367564
-8.58918e-09
2.16816e-13
0.00367565
-6.55264e-09
2.0786e-13
0.00367565
-4.82828e-09
1.95701e-13
0.00367566
-3.38746e-09
2.01734e-13
0.00367566
-2.2019e-09
2.17526e-13
0.00367566
-1.24392e-09
1.92765e-13
0.00367566
-4.86754e-10
1.74531e-13
0.00367566
9.52858e-11
1.70992e-13
0.00367566
5.26293e-10
1.65333e-13
0.00367566
8.29072e-10
1.50125e-13
0.00367566
1.0247e-09
1.39278e-13
0.00367566
1.13243e-09
1.28383e-13
0.00367566
1.16972e-09
1.02566e-13
0.00367566
1.15213e-09
5.93888e-14
0.00367565
1.09334e-09
3.38618e-14
0.00367565
1.00515e-09
5.41254e-14
0.00367565
8.97622e-10
6.72083e-14
0.00367565
7.79217e-10
1.11139e-14
0.00367565
6.56676e-10
-2.03804e-14
0.00367565
5.35348e-10
6.46518e-15
0.00367565
4.19399e-10
1.30119e-15
0.00367565
3.11722e-10
-2.77987e-14
0.00367565
2.14277e-10
-4.08157e-14
0.00367565
1.28309e-10
-4.8156e-14
0.00367565
5.42555e-11
-6.36906e-14
0.00367565
-8.09733e-12
-6.6216e-14
0.00367565
-5.92072e-11
-6.02991e-14
0.00367565
-9.9793e-11
-9.31553e-14
0.00367565
-1.309e-10
-9.74001e-14
0.00367565
-1.53696e-10
-8.97577e-14
0.00367565
-1.69306e-10
-1.16116e-13
0.00367565
-1.78896e-10
-1.16761e-13
0.00367565
-1.83617e-10
-1.01466e-13
0.00367565
-1.84465e-10
-1.21254e-13
0.00367565
-1.82342e-10
-1.43591e-13
0.00367565
-1.78079e-10
-1.58337e-13
0.00367565
-1.72281e-10
-1.58675e-13
0.00367565
-1.65576e-10
-1.22394e-13
0.00367565
-1.58473e-10
-1.41851e-13
0.00367565
-1.51224e-10
-2.11758e-13
0.00367565
-1.44099e-10
-2.03671e-13
0.00367565
-1.37325e-10
-1.58385e-13
0.00367565
-1.30974e-10
-1.61177e-13
0.00367565
-1.25116e-10
-1.83681e-13
0.00367565
-1.19838e-10
-1.90803e-13
0.00367565
-1.15103e-10
-1.73775e-13
0.00367565
-1.10797e-10
-1.84703e-13
0.00367565
-1.06919e-10
-1.95153e-13
0.00367565
-1.03553e-10
-1.40955e-13
0.00367565
-1.00537e-10
-1.21738e-13
0.00367565
-9.77173e-11
-1.61711e-13
0.00367565
-9.51808e-11
-1.72213e-13
0.00367565
-9.29214e-11
-1.39103e-13
0.00367565
-9.07596e-11
-1.45971e-13
0.00367565
-8.8709e-11
-1.29745e-13
0.00367565
-8.68017e-11
-1.03598e-13
0.00367565
-8.49674e-11
-1.08347e-13
0.00367565
-8.32169e-11
-1.34259e-13
0.00367565
-8.15104e-11
-1.36563e-13
0.00367565
-7.97969e-11
-1.00355e-13
0.00367565
-7.81419e-11
-6.78761e-14
0.00367565
-7.65387e-11
-8.1323e-14
0.00367565
-7.49489e-11
-1.05214e-13
0.00367565
-7.34129e-11
-7.15581e-14
0.00367565
-7.18763e-11
-7.21972e-14
0.00367565
-7.03396e-11
-1.07215e-13
0.00367565
-6.8897e-11
-6.98159e-14
0.00367565
-6.74704e-11
-4.58539e-14
0.00367565
-6.6008e-11
-1.03965e-13
0.00367565
-6.46467e-11
-1.03027e-13
0.00367565
-6.32718e-11
-1.17531e-13
0.00367565
-6.19685e-11
-6.17063e-14
0.00367565
-6.06903e-11
-4.50714e-14
0.00367565
-5.93737e-11
-1.13661e-13
0.00367565
-5.82161e-11
-6.22344e-14
0.00367565
-5.70741e-11
-4.60022e-14
0.00367565
-5.58123e-11
-1.0667e-13
0.00367565
-5.46797e-11
-4.07279e-14
0.00367565
-5.36433e-11
3.34588e-15
0.00367565
-5.25692e-11
-4.59279e-14
0.00367565
-5.1533e-11
-5.02317e-14
0.00367565
-5.05281e-11
-9.64517e-15
0.00367566
-4.95065e-11
-7.1783e-15
0.00367566
-4.85676e-11
8.07903e-15
0.00367566
-4.7631e-11
1.53219e-17
0.00367566
-4.66796e-11
-4.66816e-15
0.00367566
-4.5827e-11
3.92175e-14
0.00367566
-4.49233e-11
3.22737e-14
0.00367566
-4.39932e-11
2.64085e-14
0.00367566
-4.31943e-11
3.14846e-14
0.00367566
-4.2385e-11
2.38709e-14
0.00367566
-4.15662e-11
9.27928e-14
0.00367566
-4.06821e-11
5.08328e-14
0.00367566
-3.98678e-11
2.44103e-14
0.00367566
-3.92354e-11
9.57638e-14
0.00367566
-3.85055e-11
6.97272e-14
0.00367566
-3.75985e-11
1.72425e-14
0.00367566
-3.68617e-11
9.4457e-14
0.00367566
-3.63098e-11
1.18078e-13
0.00367566
-3.5596e-11
2.78423e-14
0.00367566
-3.4799e-11
1.30289e-14
0.00367566
-3.42033e-11
7.57046e-14
0.00367566
-3.36601e-11
8.951e-14
0.00367566
-3.29741e-11
2.54566e-14
0.00367566
-3.23161e-11
-1.96408e-14
0.00367566
-3.18518e-11
7.06139e-14
0.00367566
-3.12259e-11
5.14891e-14
0.00367566
-3.06151e-11
9.10571e-15
0.00367566
-3.0225e-11
6.61664e-14
0.00367566
-2.96522e-11
6.62738e-15
0.00367566
-2.91078e-11
4.14519e-14
0.00367566
-2.86336e-11
5.00686e-14
0.00367566
-2.81781e-11
4.29386e-14
0.00367566
-2.77386e-11
3.37896e-14
0.00367566
-2.72167e-11
-4.39714e-14
0.00367566
-2.68323e-11
9.60743e-14
0.00367566
-2.63932e-11
8.31402e-14
0.00367566
-2.59842e-11
4.15225e-15
0.00367566
-2.56342e-11
3.86324e-14
0.00367566
-2.51168e-11
4.53666e-15
0.00367566
-2.4735e-11
6.0556e-14
0.00367566
-2.44693e-11
1.07614e-13
0.00367566
-2.39767e-11
-3.11232e-15
0.00367566
-2.36059e-11
3.00739e-14
0.00367566
-2.32672e-11
7.5569e-14
0.00367566
-2.28854e-11
4.32174e-14
0.00367566
-2.26135e-11
8.51798e-14
0.00367566
-2.21573e-11
1.29313e-14
0.00367566
-2.18153e-11
3.45755e-14
0.00367566
-2.15759e-11
7.09521e-14
0.00367566
-2.12597e-11
4.44592e-14
0.00367566
-2.0847e-11
-9.24923e-15
0.00367566
-2.055e-11
1.88206e-14
0.00367566
-2.03096e-11
6.16012e-14
0.00367566
-2.00008e-11
1.07024e-14
0.00367566
-1.96307e-11
-2.59834e-14
0.00367566
-1.93811e-11
-1.68693e-15
0.00367566
-1.91272e-11
3.06665e-14
0.00367566
-1.87584e-11
-2.94088e-14
0.00367566
-1.85491e-11
-2.83038e-14
0.00367566
-1.82639e-11
-1.19342e-14
0.00367566
-1.80079e-11
4.96895e-14
0.00367566
-1.76719e-11
-6.60332e-14
0.00367566
-1.74697e-11
-7.49686e-14
0.00367566
-1.72379e-11
-4.09237e-15
0.00367566
-1.70539e-11
5.46851e-14
0.00367566
-1.67027e-11
-1.23256e-13
0.00367566
-1.65169e-11
-5.84405e-14
0.00367566
-1.63941e-11
3.77054e-14
0.00367566
-1.62107e-11
-3.10538e-14
0.00367566
-1.59918e-11
-1.12567e-14
0.00367566
-1.57428e-11
-4.37483e-14
0.00367566
-1.55797e-11
-2.91093e-14
0.00367566
-1.55299e-11
9.72803e-14
0.00367566
-1.5271e-11
-9.38755e-15
0.00367566
-1.50049e-11
-3.23183e-14
0.00367566
-1.50794e-11
1.21255e-13
0.00367566
-1.4773e-11
-2.36865e-14
0.00367566
-1.45851e-11
4.64083e-14
0.00367566
-1.4459e-11
5.66458e-14
0.00367566
-1.43437e-11
9.9207e-15
0.00367566
-1.419e-11
5.5199e-14
0.00367566
-1.39074e-11
-4.05398e-14
0.00367566
-1.39376e-11
1.58248e-13
0.00367566
-1.36283e-11
-4.90152e-14
0.00367566
-1.36473e-11
9.26821e-14
0.00367566
-1.33007e-11
-1.69642e-14
0.00367566
-1.31314e-11
-9.89114e-15
0.00367566
-1.31319e-11
1.03067e-13
0.00367566
-1.2835e-11
-5.42497e-14
0.00367566
-1.26896e-11
-1.84655e-14
0.00367566
-1.25904e-11
8.41791e-14
0.00367566
-1.22995e-11
-1.26538e-13
0.00367566
-1.23746e-11
1.31974e-13
0.00367566
-1.19322e-11
-1.04613e-13
0.00367566
-1.20801e-11
5.53492e-14
0.00367566
-1.16917e-11
-4.38298e-14
0.00367566
-1.15669e-11
-5.77617e-14
0.00367566
-1.15792e-11
-1.38254e-14
0.00367566
-1.13068e-11
-6.63442e-14
0.00367566
-1.13167e-11
5.9212e-14
0.00367566
-1.10567e-11
-1.33412e-13
0.00367566
-1.09412e-11
-3.51302e-14
0.00367566
-1.10182e-11
1.15257e-13
0.00367566
-1.07112e-11
-1.3166e-13
0.00367566
-1.07561e-11
7.9484e-14
0.00367566
-1.04476e-11
-1.61117e-13
0.00367566
-1.05497e-11
1.06468e-13
0.00367566
-1.04108e-11
3.67847e-14
0.00367566
-1.0351e-11
-2.9785e-14
0.00367566
-1.02679e-11
1.42964e-14
0.00367566
-1.01218e-11
-1.91348e-14
0.00367566
-1.0025e-11
-4.51771e-14
0.00367566
-1.00562e-11
9.78624e-14
0.00367566
-9.86543e-12
-2.82268e-14
0.00367566
-9.77088e-12
-1.13323e-14
0.00367566
-9.7293e-12
2.47715e-14
0.00367566
-9.64164e-12
4.74984e-14
0.00367566
-9.45453e-12
-4.31989e-15
0.00367566
-9.34975e-12
-1.77132e-14
0.00367566
-9.33759e-12
8.12051e-14
0.00367566
-9.16803e-12
-5.12861e-14
0.00367566
-9.04246e-12
-3.57966e-14
0.00367566
-9.18771e-12
1.45583e-13
0.00367566
-8.81104e-12
-1.34448e-13
0.00367566
-8.85486e-12
2.28493e-14
0.00367566
-8.75166e-12
4.36841e-15
0.00367566
-8.63252e-12
-5.77963e-14
0.00367566
-8.73524e-12
1.31161e-13
0.00367566
-8.28298e-12
-2.28641e-13
0.00367566
-8.56788e-12
1.06945e-13
0.00367566
-8.14272e-12
-2.53515e-13
0.00367566
-8.51342e-12
2.52546e-13
0.00367566
-7.97959e-12
-2.23366e-13
0.00367566
-8.14021e-12
6.45764e-14
0.00367566
-7.98299e-12
-1.00482e-13
0.00367566
-7.96093e-12
1.85323e-15
0.00367566
-7.77366e-12
3.83781e-15
0.00367566
-7.9288e-12
-1.29592e-14
0.00367566
-7.58132e-12
-2.84574e-14
0.00367566
-7.8892e-12
-2.32813e-14
0.00367566
-7.42016e-12
4.17172e-14
0.00367566
-7.81944e-12
-1.65411e-13
0.00367566
-7.28924e-12
9.08536e-14
0.00367566
-7.92032e-12
-1.08035e-13
0.00367566
-6.6345e-12
1.00504e-13
0.00367566
-6.92448e-12
-4.20576e-14
0.00367566
-4.61321e-12
2.25911e-13
1.20125e-12
-1.28193e-13
0.00240039
-1.40666e-07
0.0024006
-4.25031e-07
0.00240096
-7.12898e-07
0.00240145
-1.00369e-06
0.0024021
-1.29699e-06
0.00240288
-1.59239e-06
0.00240382
-1.88945e-06
0.0024049
-2.18774e-06
0.00240613
-2.48681e-06
0.00240751
-2.7862e-06
0.00240904
-3.08547e-06
0.00241071
-3.38416e-06
0.00241254
-3.68181e-06
0.00241451
-3.97798e-06
0.00241662
-4.27222e-06
0.00241888
-4.5641e-06
0.00242128
-4.85319e-06
0.00242382
-5.13907e-06
0.0024265
-5.42135e-06
0.00242932
-5.69963e-06
0.00243227
-5.97354e-06
0.00243536
-6.24274e-06
0.00243857
-6.50689e-06
0.00244192
-6.76567e-06
0.00244539
-7.01879e-06
0.00244897
-7.26599e-06
0.00245268
-7.50702e-06
0.00245651
-7.74165e-06
0.00246044
-7.96967e-06
0.00246448
-8.19092e-06
0.00246863
-8.40523e-06
0.00247288
-8.61247e-06
0.00247723
-8.81254e-06
0.00248167
-9.00535e-06
0.0024862
-9.19083e-06
0.00249082
-9.36893e-06
0.00249553
-9.53964e-06
0.00250031
-9.70295e-06
0.00250517
-9.85888e-06
0.0025101
-1.00075e-05
0.0025151
-1.01487e-05
0.00252016
-1.02828e-05
0.00252529
-1.04097e-05
0.00253047
-1.05295e-05
0.00253571
-1.06423e-05
0.002541
-1.07484e-05
0.00254634
-1.08477e-05
0.00255173
-1.09405e-05
0.00255715
-1.10268e-05
0.00256262
-1.11069e-05
0.00256812
-1.11808e-05
0.00257365
-1.12489e-05
0.00257921
-1.13111e-05
0.0025848
-1.13678e-05
0.00259041
-1.1419e-05
0.00259605
-1.14651e-05
0.0026017
-1.1506e-05
0.00260738
-1.15421e-05
0.00261306
-1.15735e-05
0.00261877
-1.16004e-05
0.00262448
-1.1623e-05
0.0026302
-1.16414e-05
0.00263592
-1.16558e-05
0.00264165
-1.16665e-05
0.00264739
-1.16735e-05
0.00265312
-1.16771e-05
0.00265885
-1.16774e-05
0.00266459
-1.16746e-05
0.00267032
-1.16688e-05
0.00267604
-1.16602e-05
0.00268176
-1.1649e-05
0.00268747
-1.16352e-05
0.00269318
-1.16191e-05
0.00269887
-1.16007e-05
0.00270456
-1.15803e-05
0.00271023
-1.15578e-05
0.00271589
-1.15335e-05
0.00272154
-1.15075e-05
0.00272717
-1.14799e-05
0.00273279
-1.14507e-05
0.00273839
-1.14201e-05
0.00274398
-1.13883e-05
0.00274955
-1.13552e-05
0.00275511
-1.1321e-05
0.00276064
-1.12858e-05
0.00276616
-1.12497e-05
0.00277166
-1.12126e-05
0.00277714
-1.11748e-05
0.0027826
-1.11363e-05
0.00278804
-1.10971e-05
0.00279347
-1.10573e-05
0.00279887
-1.1017e-05
0.00280425
-1.09762e-05
0.00280961
-1.09349e-05
0.00281495
-1.08934e-05
0.00282027
-1.08514e-05
0.00282557
-1.08092e-05
0.00283084
-1.07668e-05
0.0028361
-1.07241e-05
0.00284133
-1.06813e-05
0.00284654
-1.06384e-05
0.00285173
-1.05953e-05
0.0028569
-1.05522e-05
0.00286205
-1.0509e-05
0.00286717
-1.04658e-05
0.00287227
-1.04225e-05
0.00287735
-1.03793e-05
0.00288241
-1.03361e-05
0.00288745
-1.0293e-05
0.00289246
-1.02499e-05
0.00289746
-1.02069e-05
0.00290243
-1.0164e-05
0.00290738
-1.01211e-05
0.00291231
-1.00784e-05
0.00291721
-1.00358e-05
0.0029221
-9.99327e-06
0.00292696
-9.95089e-06
0.0029318
-9.90863e-06
0.00293662
-9.86649e-06
0.00294142
-9.82449e-06
0.0029462
-9.78262e-06
0.00295096
-9.74087e-06
0.00295569
-9.69926e-06
0.0029604
-9.65778e-06
0.0029651
-9.61644e-06
0.00296977
-9.57521e-06
0.00297442
-9.53412e-06
0.00297905
-9.49314e-06
0.00298366
-9.45229e-06
0.00298824
-9.41155e-06
0.00299281
-9.37092e-06
0.00299735
-9.3304e-06
0.00300188
-9.28999e-06
0.00300638
-9.24967e-06
0.00301087
-9.20945e-06
0.00301533
-9.16931e-06
0.00301977
-9.12926e-06
0.0030242
-9.08929e-06
0.0030286
-9.04939e-06
0.00303298
-9.00956e-06
0.00303734
-8.96979e-06
0.00304168
-8.93008e-06
0.003046
-8.89042e-06
0.0030503
-8.85081e-06
0.00305458
-8.81124e-06
0.00305884
-8.7717e-06
0.00306308
-8.7322e-06
0.0030673
-8.69273e-06
0.0030715
-8.65328e-06
0.00307568
-8.61384e-06
0.00307984
-8.57442e-06
0.00308398
-8.535e-06
0.0030881
-8.4956e-06
0.00309219
-8.45619e-06
0.00309627
-8.41678e-06
0.00310033
-8.37736e-06
0.00310437
-8.33792e-06
0.00310839
-8.29848e-06
0.00311239
-8.25902e-06
0.00311637
-8.21954e-06
0.00312033
-8.18003e-06
0.00312426
-8.1405e-06
0.00312818
-8.10094e-06
0.00313208
-8.06135e-06
0.00313596
-8.02173e-06
0.00313982
-7.98208e-06
0.00314366
-7.94238e-06
0.00314748
-7.90265e-06
0.00315127
-7.86289e-06
0.00315505
-7.82308e-06
0.00315881
-7.78323e-06
0.00316255
-7.74334e-06
0.00316627
-7.70341e-06
0.00316997
-7.66344e-06
0.00317365
-7.62342e-06
0.0031773
-7.58336e-06
0.00318094
-7.54326e-06
0.00318456
-7.50312e-06
0.00318816
-7.46293e-06
0.00319174
-7.4227e-06
0.0031953
-7.38243e-06
0.00319883
-7.34213e-06
0.00320235
-7.30178e-06
0.00320585
-7.26139e-06
0.00320933
-7.22097e-06
0.00321279
-7.18051e-06
0.00321622
-7.14001e-06
0.00321964
-7.09949e-06
0.00322304
-7.05893e-06
0.00322642
-7.01834e-06
0.00322977
-6.97772e-06
0.00323311
-6.93708e-06
0.00323643
-6.89641e-06
0.00323973
-6.85572e-06
0.003243
-6.81501e-06
0.00324626
-6.77428e-06
0.0032495
-6.73353e-06
0.00325272
-6.69277e-06
0.00325591
-6.652e-06
0.00325909
-6.61122e-06
0.00326225
-6.57043e-06
0.00326538
-6.52963e-06
0.0032685
-6.48883e-06
0.0032716
-6.44803e-06
0.00327468
-6.40723e-06
0.00327773
-6.36644e-06
0.00328077
-6.32565e-06
0.00328379
-6.28487e-06
0.00328678
-6.2441e-06
0.00328976
-6.20335e-06
0.00329272
-6.16261e-06
0.00329566
-6.12189e-06
0.00329858
-6.08119e-06
0.00330147
-6.04051e-06
0.00330435
-5.99985e-06
0.00330721
-5.95923e-06
0.00331005
-5.91863e-06
0.00331287
-5.87806e-06
0.00331567
-5.83753e-06
0.00331845
-5.79703e-06
0.00332121
-5.75657e-06
0.00332395
-5.71615e-06
0.00332667
-5.67577e-06
0.00332937
-5.63543e-06
0.00333205
-5.59514e-06
0.00333471
-5.55489e-06
0.00333736
-5.51469e-06
0.00333998
-5.47454e-06
0.00334258
-5.43444e-06
0.00334517
-5.39439e-06
0.00334773
-5.3544e-06
0.00335028
-5.31446e-06
0.00335281
-5.27457e-06
0.00335531
-5.23474e-06
0.0033578
-5.19496e-06
0.00336027
-5.15524e-06
0.00336272
-5.11557e-06
0.00336515
-5.07597e-06
0.00336756
-5.03642e-06
0.00336996
-4.99692e-06
0.00337233
-4.95748e-06
0.00337469
-4.9181e-06
0.00337702
-4.87877e-06
0.00337934
-4.8395e-06
0.00338164
-4.80028e-06
0.00338392
-4.76111e-06
0.00338618
-4.72199e-06
0.00338842
-4.68291e-06
0.00339064
-4.64388e-06
0.00339284
-4.6049e-06
0.00339503
-4.56595e-06
0.0033972
-4.52704e-06
0.00339934
-4.48817e-06
0.00340147
-4.44932e-06
0.00340358
-4.4105e-06
0.00340567
-4.3717e-06
0.00340775
-4.33292e-06
0.0034098
-4.29415e-06
0.00341184
-4.25538e-06
0.00341385
-4.21662e-06
0.00341585
-4.17785e-06
0.00341783
-4.13906e-06
0.00341979
-4.10026e-06
0.00342174
-4.06143e-06
0.00342366
-4.02257e-06
0.00342557
-3.98366e-06
0.00342745
-3.9447e-06
0.00342932
-3.90568e-06
0.00343117
-3.86659e-06
0.003433
-3.82743e-06
0.00343481
-3.78817e-06
0.00343661
-3.74881e-06
0.00343838
-3.70935e-06
0.00344013
-3.66976e-06
0.00344187
-3.63004e-06
0.00344359
-3.59018e-06
0.00344528
-3.55016e-06
0.00344696
-3.50997e-06
0.00344862
-3.4696e-06
0.00345026
-3.42905e-06
0.00345188
-3.38828e-06
0.00345348
-3.34731e-06
0.00345506
-3.30611e-06
0.00345662
-3.26466e-06
0.00345816
-3.22297e-06
0.00345968
-3.18102e-06
0.00346118
-3.13879e-06
0.00346266
-3.09628e-06
0.00346412
-3.05348e-06
0.00346556
-3.01038e-06
0.00346698
-2.96696e-06
0.00346838
-2.92323e-06
0.00346975
-2.87918e-06
0.00347111
-2.83479e-06
0.00347244
-2.79008e-06
0.00347375
-2.74502e-06
0.00347504
-2.69962e-06
0.00347631
-2.65389e-06
0.00347755
-2.60781e-06
0.00347878
-2.5614e-06
0.00347998
-2.51465e-06
0.00348116
-2.46757e-06
0.00348231
-2.42018e-06
0.00348344
-2.37247e-06
0.00348455
-2.32446e-06
0.00348564
-2.27617e-06
0.0034867
-2.2276e-06
0.00348774
-2.17878e-06
0.00348876
-2.12972e-06
0.00348975
-2.08045e-06
0.00349072
-2.03098e-06
0.00349167
-1.98135e-06
0.00349259
-1.93158e-06
0.00349348
-1.8817e-06
0.00349436
-1.83173e-06
0.00349521
-1.78172e-06
0.00349603
-1.7317e-06
0.00349684