/*--------------------------------*- C++ -*----------------------------------*\
  =========                 |
  \\      /  F ield         | OpenFOAM: The Open Source CFD Toolbox
   \\    /   O peration     | Website:  https://openfoam.org
    \\  /    A nd           | Version:  7
     \\/     M anipulation  |
\*---------------------------------------------------------------------------*/
FoamFile
{
    version     2.0;
    format      ascii;
    class       volVectorField;
    location    "4";
    object      U;
}
// * * * * * * * * * * * * * * * * * * * * * * * * * * * * * * * * * * * * * //

dimensions      [0 1 -1 0 0 0 0];

internalField   nonuniform List<vector> 
48000
(
(1.00001 -5.5342e-05 0)
(1.00006 -0.000166426 0)
(1.00017 -0.000277963 0)
(1.00034 -0.000389781 0)
(1.00058 -0.000501716 0)
(1.00087 -0.000613608 0)
(1.00122 -0.000725291 0)
(1.00163 -0.000836599 0)
(1.0021 -0.000947367 0)
(1.00264 -0.00105743 0)
(1.00323 -0.00116662 0)
(1.00388 -0.00127479 0)
(1.00459 -0.00138176 0)
(1.00537 -0.00148739 0)
(1.0062 -0.00159152 0)
(1.00709 -0.001694 0)
(1.00805 -0.0017947 0)
(1.00905 -0.00189349 0)
(1.01012 -0.00199022 0)
(1.01125 -0.00208479 0)
(1.01243 -0.00217707 0)
(1.01366 -0.00226697 0)
(1.01495 -0.00235438 0)
(1.01629 -0.00243921 0)
(1.01769 -0.00252139 0)
(1.01913 -0.00260084 0)
(1.02063 -0.0026775 0)
(1.02217 -0.00275132 0)
(1.02376 -0.00282225 0)
(1.0254 -0.00289025 0)
(1.02708 -0.00295529 0)
(1.0288 -0.00301737 0)
(1.03056 -0.00307646 0)
(1.03237 -0.00313257 0)
(1.03421 -0.00318569 0)
(1.03609 -0.00323585 0)
(1.03801 -0.00328306 0)
(1.03996 -0.00332734 0)
(1.04194 -0.00336873 0)
(1.04396 -0.00340728 0)
(1.046 -0.00344301 0)
(1.04808 -0.00347598 0)
(1.05017 -0.00350625 0)
(1.0523 -0.00353386 0)
(1.05445 -0.00355889 0)
(1.05662 -0.0035814 0)
(1.05881 -0.00360145 0)
(1.06102 -0.00361911 0)
(1.06325 -0.00363446 0)
(1.0655 -0.00364757 0)
(1.06777 -0.00365852 0)
(1.07005 -0.00366738 0)
(1.07234 -0.00367422 0)
(1.07464 -0.00367914 0)
(1.07696 -0.0036822 0)
(1.07928 -0.00368348 0)
(1.08162 -0.00368306 0)
(1.08396 -0.00368101 0)
(1.08631 -0.00367742 0)
(1.08867 -0.00367236 0)
(1.09103 -0.0036659 0)
(1.09339 -0.00365811 0)
(1.09576 -0.00364906 0)
(1.09814 -0.00363883 0)
(1.10051 -0.00362749 0)
(1.10288 -0.00361509 0)
(1.10526 -0.0036017 0)
(1.10764 -0.00358739 0)
(1.11001 -0.00357222 0)
(1.11238 -0.00355624 0)
(1.11476 -0.00353951 0)
(1.11713 -0.00352208 0)
(1.11949 -0.00350401 0)
(1.12186 -0.00348535 0)
(1.12421 -0.00346615 0)
(1.12657 -0.00344644 0)
(1.12892 -0.00342629 0)
(1.13126 -0.00340572 0)
(1.1336 -0.00338478 0)
(1.13594 -0.00336351 0)
(1.13827 -0.00334194 0)
(1.14059 -0.00332011 0)
(1.14291 -0.00329805 0)
(1.14521 -0.00327579 0)
(1.14752 -0.00325336 0)
(1.14981 -0.00323079 0)
(1.1521 -0.0032081 0)
(1.15438 -0.00318533 0)
(1.15665 -0.00316248 0)
(1.15892 -0.00313959 0)
(1.16117 -0.00311667 0)
(1.16342 -0.00309374 0)
(1.16566 -0.00307082 0)
(1.1679 -0.00304792 0)
(1.17012 -0.00302506 0)
(1.17234 -0.00300226 0)
(1.17454 -0.00297952 0)
(1.17674 -0.00295686 0)
(1.17893 -0.00293429 0)
(1.18112 -0.00291181 0)
(1.18329 -0.00288945 0)
(1.18545 -0.00286719 0)
(1.18761 -0.00284506 0)
(1.18976 -0.00282305 0)
(1.1919 -0.00280118 0)
(1.19403 -0.00277944 0)
(1.19615 -0.00275785 0)
(1.19827 -0.0027364 0)
(1.20037 -0.0027151 0)
(1.20247 -0.00269395 0)
(1.20456 -0.00267296 0)
(1.20664 -0.00265212 0)
(1.20871 -0.00263144 0)
(1.21077 -0.00261091 0)
(1.21283 -0.00259054 0)
(1.21487 -0.00257033 0)
(1.21691 -0.00255027 0)
(1.21894 -0.00253037 0)
(1.22096 -0.00251063 0)
(1.22297 -0.00249104 0)
(1.22498 -0.00247161 0)
(1.22698 -0.00245233 0)
(1.22897 -0.0024332 0)
(1.23095 -0.00241421 0)
(1.23292 -0.00239538 0)
(1.23488 -0.00237668 0)
(1.23684 -0.00235813 0)
(1.23879 -0.00233973 0)
(1.24073 -0.00232145 0)
(1.24266 -0.00230332 0)
(1.24459 -0.00228532 0)
(1.2465 -0.00226744 0)
(1.24841 -0.0022497 0)
(1.25031 -0.00223208 0)
(1.2522 -0.00221459 0)
(1.25409 -0.00219722 0)
(1.25597 -0.00217996 0)
(1.25784 -0.00216282 0)
(1.2597 -0.0021458 0)
(1.26155 -0.00212888 0)
(1.2634 -0.00211208 0)
(1.26524 -0.00209538 0)
(1.26707 -0.00207878 0)
(1.26889 -0.00206229 0)
(1.27071 -0.0020459 0)
(1.27251 -0.0020296 0)
(1.27431 -0.0020134 0)
(1.27611 -0.0019973 0)
(1.27789 -0.00198128 0)
(1.27967 -0.00196536 0)
(1.28144 -0.00194952 0)
(1.2832 -0.00193377 0)
(1.28495 -0.00191811 0)
(1.2867 -0.00190253 0)
(1.28844 -0.00188703 0)
(1.29017 -0.00187161 0)
(1.29189 -0.00185627 0)
(1.2936 -0.00184101 0)
(1.29531 -0.00182582 0)
(1.29701 -0.00181071 0)
(1.2987 -0.00179567 0)
(1.30038 -0.00178071 0)
(1.30206 -0.00176582 0)
(1.30373 -0.001751 0)
(1.30539 -0.00173625 0)
(1.30704 -0.00172158 0)
(1.30869 -0.00170697 0)
(1.31032 -0.00169243 0)
(1.31195 -0.00167796 0)
(1.31357 -0.00166355 0)
(1.31518 -0.00164921 0)
(1.31679 -0.00163494 0)
(1.31839 -0.00162074 0)
(1.31998 -0.0016066 0)
(1.32156 -0.00159253 0)
(1.32313 -0.00157852 0)
(1.32469 -0.00156458 0)
(1.32625 -0.0015507 0)
(1.3278 -0.00153689 0)
(1.32934 -0.00152314 0)
(1.33087 -0.00150946 0)
(1.3324 -0.00149584 0)
(1.33392 -0.00148229 0)
(1.33542 -0.0014688 0)
(1.33692 -0.00145537 0)
(1.33842 -0.00144202 0)
(1.3399 -0.00142872 0)
(1.34138 -0.00141549 0)
(1.34284 -0.00140233 0)
(1.3443 -0.00138923 0)
(1.34576 -0.0013762 0)
(1.3472 -0.00136324 0)
(1.34863 -0.00135034 0)
(1.35006 -0.00133751 0)
(1.35148 -0.00132474 0)
(1.35289 -0.00131204 0)
(1.35429 -0.00129941 0)
(1.35568 -0.00128684 0)
(1.35707 -0.00127434 0)
(1.35845 -0.00126191 0)
(1.35981 -0.00124955 0)
(1.36118 -0.00123725 0)
(1.36253 -0.00122503 0)
(1.36387 -0.00121287 0)
(1.36521 -0.00120078 0)
(1.36653 -0.00118876 0)
(1.36785 -0.00117681 0)
(1.36916 -0.00116493 0)
(1.37046 -0.00115312 0)
(1.37176 -0.00114138 0)
(1.37304 -0.0011297 0)
(1.37432 -0.0011181 0)
(1.37559 -0.00110657 0)
(1.37685 -0.00109511 0)
(1.3781 -0.00108372 0)
(1.37935 -0.0010724 0)
(1.38058 -0.00106116 0)
(1.38181 -0.00104998 0)
(1.38303 -0.00103887 0)
(1.38424 -0.00102784 0)
(1.38544 -0.00101688 0)
(1.38663 -0.00100599 0)
(1.38782 -0.000995166 0)
(1.389 -0.000984417 0)
(1.39016 -0.000973739 0)
(1.39132 -0.000963133 0)
(1.39248 -0.000952599 0)
(1.39362 -0.000942135 0)
(1.39476 -0.000931743 0)
(1.39588 -0.000921421 0)
(1.397 -0.000911171 0)
(1.39811 -0.000900991 0)
(1.39922 -0.000890882 0)
(1.40031 -0.000880843 0)
(1.4014 -0.000870874 0)
(1.40248 -0.000860976 0)
(1.40354 -0.000851146 0)
(1.40461 -0.000841386 0)
(1.40566 -0.000831695 0)
(1.4067 -0.000822073 0)
(1.40774 -0.000812519 0)
(1.40877 -0.000803032 0)
(1.40979 -0.000793613 0)
(1.4108 -0.000784261 0)
(1.41181 -0.000774975 0)
(1.4128 -0.000765754 0)
(1.41379 -0.000756599 0)
(1.41477 -0.000747509 0)
(1.41574 -0.000738482 0)
(1.41671 -0.000729518 0)
(1.41766 -0.000720617 0)
(1.41861 -0.000711777 0)
(1.41955 -0.000702998 0)
(1.42048 -0.00069428 0)
(1.42141 -0.00068562 0)
(1.42232 -0.000677018 0)
(1.42323 -0.000668473 0)
(1.42413 -0.000659985 0)
(1.42502 -0.000651551 0)
(1.4259 -0.000643172 0)
(1.42678 -0.000634845 0)
(1.42765 -0.000626569 0)
(1.42851 -0.000618344 0)
(1.42936 -0.000610168 0)
(1.4302 -0.000602039 0)
(1.43103 -0.000593957 0)
(1.43186 -0.000585919 0)
(1.43268 -0.000577925 0)
(1.43349 -0.000569972 0)
(1.43429 -0.00056206 0)
(1.43509 -0.000554187 0)
(1.43587 -0.000546351 0)
(1.43665 -0.00053855 0)
(1.43742 -0.000530784 0)
(1.43818 -0.000523049 0)
(1.43893 -0.000515346 0)
(1.43968 -0.000507671 0)
(1.44042 -0.000500024 0)
(1.44114 -0.000492402 0)
(1.44186 -0.000484805 0)
(1.44257 -0.000477229 0)
(1.44328 -0.000469675 0)
(1.44397 -0.00046214 0)
(1.44466 -0.000454623 0)
(1.44533 -0.000447121 0)
(1.446 -0.000439635 0)
(1.44666 -0.000432162 0)
(1.44731 -0.000424702 0)
(1.44795 -0.000417253 0)
(1.44859 -0.000409814 0)
(1.44921 -0.000402384 0)
(1.44983 -0.000394962 0)
(1.45043 -0.000387548 0)
(1.45103 -0.000380141 0)
(1.45161 -0.00037274 0)
(1.45219 -0.000365346 0)
(1.45276 -0.000357959 0)
(1.45332 -0.000350578 0)
(1.45387 -0.000343203 0)
(1.45441 -0.000335836 0)
(1.45494 -0.000328477 0)
(1.45546 -0.000321127 0)
(1.45597 -0.000313787 0)
(1.45647 -0.000306458 0)
(1.45696 -0.000299142 0)
(1.45744 -0.00029184 0)
(1.45791 -0.000284555 0)
(1.45837 -0.000277289 0)
(1.45882 -0.000270044 0)
(1.45926 -0.000262823 0)
(1.45969 -0.000255629 0)
(1.46011 -0.000248465 0)
(1.46052 -0.000241333 0)
(1.46092 -0.000234238 0)
(1.46131 -0.000227183 0)
(1.46169 -0.000220172 0)
(1.46205 -0.000213209 0)
(1.46241 -0.000206298 0)
(1.46276 -0.000199443 0)
(1.46309 -0.000192648 0)
(1.46342 -0.000185918 0)
(1.46373 -0.000179257 0)
(1.46404 -0.00017267 0)
(1.46433 -0.000166161 0)
(1.46462 -0.000159735 0)
(1.46489 -0.000153396 0)
(1.46516 -0.000147149 0)
(1.46541 -0.000140998 0)
(1.46566 -0.000134948 0)
(1.46589 -0.000129003 0)
(1.46612 -0.000123167 0)
(1.46633 -0.000117444 0)
(1.46654 -0.000111838 0)
(1.46674 -0.000106353 0)
(1.46693 -0.000100992 0)
(1.4671 -9.57597e-05 0)
(1.46727 -9.0658e-05 0)
(1.46744 -8.56904e-05 0)
(1.46759 -8.08597e-05 0)
(1.46773 -7.61685e-05 0)
(1.46787 -7.16192e-05 0)
(1.468 -6.72139e-05 0)
(1.46812 -6.29546e-05 0)
(1.46824 -5.88429e-05 0)
(1.46834 -5.48802e-05 0)
(1.46844 -5.10679e-05 0)
(1.46854 -4.74067e-05 0)
(1.46862 -4.38973e-05 0)
(1.4687 -4.05403e-05 0)
(1.46878 -3.73357e-05 0)
(1.46885 -3.42833e-05 0)
(1.46891 -3.13829e-05 0)
(1.46897 -2.86335e-05 0)
(1.46902 -2.60342e-05 0)
(1.46907 -2.35837e-05 0)
(1.46911 -2.12801e-05 0)
(1.46915 -1.91215e-05 0)
(1.46919 -1.71054e-05 0)
(1.46922 -1.52292e-05 0)
(1.46925 -1.34896e-05 0)
(1.46928 -1.18831e-05 0)
(1.4693 -1.0406e-05 0)
(1.46932 -9.05389e-06 0)
(1.46933 -7.82229e-06 0)
(1.46935 -6.7063e-06 0)
(1.46936 -5.70071e-06 0)
(1.46937 -4.80003e-06 0)
(1.46938 -3.99856e-06 0)
(1.46939 -3.29038e-06 0)
(1.46939 -2.66939e-06 0)
(1.4694 -2.12944e-06 0)
(1.4694 -1.66426e-06 0)
(1.46941 -1.26762e-06 0)
(1.46941 -9.33306e-07 0)
(1.46941 -6.5524e-07 0)
(1.46941 -4.27476e-07 0)
(1.46941 -2.44261e-07 0)
(1.46941 -1.00125e-07 0)
(1.46941 1.01461e-08 0)
(1.46941 9.14172e-08 0)
(1.46941 1.48232e-07 0)
(1.46941 1.84743e-07 0)
(1.46941 2.04711e-07 0)
(1.46941 2.11524e-07 0)
(1.46941 2.08181e-07 0)
(1.46941 1.97276e-07 0)
(1.46941 1.81028e-07 0)
(1.46941 1.61333e-07 0)
(1.46941 1.39771e-07 0)
(1.46941 1.1756e-07 0)
(1.46941 9.5664e-08 0)
(1.46941 7.48465e-08 0)
(1.46941 5.5611e-08 0)
(1.46941 3.82844e-08 0)
(1.46941 2.30784e-08 0)
(1.46941 1.00539e-08 0)
(1.46941 -8.49681e-10 0)
(1.46941 -9.73698e-09 0)
(1.46941 -1.67394e-08 0)
(1.46941 -2.20618e-08 0)
(1.46941 -2.59201e-08 0)
(1.46941 -2.85161e-08 0)
(1.46941 -3.00726e-08 0)
(1.46941 -3.07919e-08 0)
(1.46941 -3.08399e-08 0)
(1.46941 -3.03833e-08 0)
(1.46941 -2.95716e-08 0)
(1.46941 -2.85087e-08 0)
(1.46941 -2.73056e-08 0)
(1.46941 -2.60325e-08 0)
(1.46941 -2.47329e-08 0)
(1.46941 -2.34778e-08 0)
(1.46941 -2.22943e-08 0)
(1.46941 -2.11753e-08 0)
(1.46941 -2.01401e-08 0)
(1.46941 -1.92148e-08 0)
(1.46941 -1.8385e-08 0)
(1.46941 -1.76204e-08 0)
(1.46941 -1.69316e-08 0)
(1.46941 -1.63437e-08 0)
(1.46941 -1.58077e-08 0)
(1.46941 -1.52965e-08 0)
(1.46941 -1.48392e-08 0)
(1.46941 -1.44324e-08 0)
(1.46941 -1.40403e-08 0)
(1.46941 -1.36737e-08 0)
(1.46941 -1.33316e-08 0)
(1.46941 -1.29984e-08 0)
(1.46941 -1.26771e-08 0)
(1.46941 -1.23659e-08 0)
(1.46941 -1.20653e-08 0)
(1.46941 -1.17765e-08 0)
(1.46941 -1.14854e-08 0)
(1.46941 -1.1199e-08 0)
(1.46941 -1.09358e-08 0)
(1.46941 -1.06641e-08 0)
(1.46941 -1.03879e-08 0)
(1.46941 -1.01425e-08 0)
(1.46941 -9.89829e-09 0)
(1.46941 -9.63769e-09 0)
(1.46941 -9.40347e-09 0)
(1.46941 -9.16497e-09 0)
(1.46941 -8.94786e-09 0)
(1.46941 -8.73214e-09 0)
(1.46941 -8.50101e-09 0)
(1.46941 -8.31091e-09 0)
(1.46941 -8.11754e-09 0)
(1.46941 -7.89637e-09 0)
(1.46941 -7.71967e-09 0)
(1.46941 -7.553e-09 0)
(1.46941 -7.36073e-09 0)
(1.46941 -7.18607e-09 0)
(1.46941 -7.02964e-09 0)
(1.46941 -6.85994e-09 0)
(1.46941 -6.70134e-09 0)
(1.46941 -6.54819e-09 0)
(1.46941 -6.39369e-09 0)
(1.46941 -6.2585e-09 0)
(1.46941 -6.11013e-09 0)
(1.46941 -5.95729e-09 0)
(1.46941 -5.8289e-09 0)
(1.46941 -5.70097e-09 0)
(1.46941 -5.57609e-09 0)
(1.46941 -5.42796e-09 0)
(1.46941 -5.29673e-09 0)
(1.46941 -5.20379e-09 0)
(1.46941 -5.08234e-09 0)
(1.46941 -4.93627e-09 0)
(1.46941 -4.83012e-09 0)
(1.46941 -4.74326e-09 0)
(1.46941 -4.62223e-09 0)
(1.46941 -4.49997e-09 0)
(1.46941 -4.40992e-09 0)
(1.46941 -4.32816e-09 0)
(1.46941 -4.21621e-09 0)
(1.46941 -4.10856e-09 0)
(1.46941 -4.04489e-09 0)
(1.46941 -3.95025e-09 0)
(1.46941 -3.85316e-09 0)
(1.46941 -3.79341e-09 0)
(1.46941 -3.69912e-09 0)
(1.46941 -3.6257e-09 0)
(1.46941 -3.55503e-09 0)
(1.46941 -3.48063e-09 0)
(1.46941 -3.41315e-09 0)
(1.46941 -3.32573e-09 0)
(1.46941 -3.2796e-09 0)
(1.46941 -3.22049e-09 0)
(1.46941 -3.14462e-09 0)
(1.46941 -3.09206e-09 0)
(1.46941 -3.01887e-09 0)
(1.46941 -2.96519e-09 0)
(1.46941 -2.92755e-09 0)
(1.46941 -2.84651e-09 0)
(1.46941 -2.79666e-09 0)
(1.46941 -2.75131e-09 0)
(1.46941 -2.6904e-09 0)
(1.46941 -2.65192e-09 0)
(1.46941 -2.58411e-09 0)
(1.46941 -2.53811e-09 0)
(1.46941 -2.50312e-09 0)
(1.46941 -2.45041e-09 0)
(1.46941 -2.38864e-09 0)
(1.46941 -2.34899e-09 0)
(1.46941 -2.31691e-09 0)
(1.46941 -2.27047e-09 0)
(1.46941 -2.21643e-09 0)
(1.46941 -2.17645e-09 0)
(1.46941 -2.14527e-09 0)
(1.46941 -2.09064e-09 0)
(1.46941 -2.05907e-09 0)
(1.46941 -2.021e-09 0)
(1.46941 -1.98824e-09 0)
(1.46941 -1.93374e-09 0)
(1.46941 -1.90803e-09 0)
(1.46941 -1.87484e-09 0)
(1.46941 -1.85768e-09 0)
(1.46941 -1.79752e-09 0)
(1.46941 -1.7743e-09 0)
(1.46941 -1.76278e-09 0)
(1.46941 -1.72995e-09 0)
(1.46941 -1.70347e-09 0)
(1.46941 -1.66708e-09 0)
(1.46941 -1.64331e-09 0)
(1.46941 -1.64348e-09 0)
(1.46941 -1.60263e-09 0)
(1.46941 -1.56193e-09 0)
(1.46941 -1.58257e-09 0)
(1.46941 -1.53023e-09 0)
(1.46941 -1.5118e-09 0)
(1.46941 -1.49128e-09 0)
(1.46941 -1.47108e-09 0)
(1.46941 -1.45636e-09 0)
(1.46941 -1.40667e-09 0)
(1.46941 -1.428e-09 0)
(1.46941 -1.37306e-09 0)
(1.46941 -1.38025e-09 0)
(1.46941 -1.32987e-09 0)
(1.46941 -1.30829e-09 0)
(1.46941 -1.31574e-09 0)
(1.46941 -1.26771e-09 0)
(1.46941 -1.2493e-09 0)
(1.46941 -1.2435e-09 0)
(1.46941 -1.193e-09 0)
(1.46941 -1.223e-09 0)
(1.46941 -1.14388e-09 0)
(1.46941 -1.17387e-09 0)
(1.46941 -1.12445e-09 0)
(1.46941 -1.10443e-09 0)
(1.46941 -1.1107e-09 0)
(1.46941 -1.07247e-09 0)
(1.46941 -1.0802e-09 0)
(1.46941 -1.03993e-09 0)
(1.46941 -1.02774e-09 0)
(1.46941 -1.04417e-09 0)
(1.46941 -9.91286e-10 0)
(1.46941 -1.00392e-09 0)
(1.46941 -9.58043e-10 0)
(1.46941 -9.89701e-10 0)
(1.46941 -9.60169e-10 0)
(1.46941 -9.4736e-10 0)
(1.46941 -9.39051e-10 0)
(1.46941 -9.21068e-10 0)
(1.46941 -9.07747e-10 0)
(1.46941 -9.14594e-10 0)
(1.46941 -8.86721e-10 0)
(1.46941 -8.73285e-10 0)
(1.46941 -8.65362e-10 0)
(1.46941 -8.65991e-10 0)
(1.46941 -8.30032e-10 0)
(1.46941 -8.25955e-10 0)
(1.46941 -8.24975e-10 0)
(1.46941 -7.97482e-10 0)
(1.46941 -7.83473e-10 0)
(1.46941 -8.14002e-10 0)
(1.46941 -7.5058e-10 0)
(1.46941 -7.61638e-10 0)
(1.46941 -7.51065e-10 0)
(1.46941 -7.35485e-10 0)
(1.46941 -7.55587e-10 0)
(1.46941 -6.84166e-10 0)
(1.46941 -7.31712e-10 0)
(1.46941 -6.64533e-10 0)
(1.46941 -7.38632e-10 0)
(1.46941 -6.55233e-10 0)
(1.46941 -6.75991e-10 0)
(1.46941 -6.53224e-10 0)
(1.46941 -6.61407e-10 0)
(1.46941 -6.42765e-10 0)
(1.46941 -6.53463e-10 0)
(1.46941 -6.12664e-10 0)
(1.46941 -6.4364e-10 0)
(1.46941 -6.11565e-10 0)
(1.46941 -6.17061e-10 0)
(1.46941 -5.9084e-10 0)
(1.46941 -6.22025e-10 0)
(1.46941 -5.26352e-10 0)
(1.46941 -5.32309e-10 0)
(1.46941 -3.78915e-10 0)
(1.46941 1.33937e-10 0)
(1.00001 -0.000165029 0)
(1.00006 -0.000496283 0)
(1.00017 -0.000828891 0)
(1.00035 -0.00116233 0)
(1.00059 -0.00149611 0)
(1.00089 -0.00182973 0)
(1.00125 -0.00216271 0)
(1.00167 -0.00249454 0)
(1.00215 -0.00282472 0)
(1.00269 -0.00315276 0)
(1.0033 -0.00347815 0)
(1.00397 -0.00380041 0)
(1.00469 -0.00411907 0)
(1.00548 -0.00443365 0)
(1.00633 -0.0047437 0)
(1.00725 -0.00504877 0)
(1.00822 -0.00534846 0)
(1.00925 -0.00564234 0)
(1.01033 -0.00593005 0)
(1.01148 -0.00621121 0)
(1.01268 -0.00648549 0)
(1.01394 -0.00675257 0)
(1.01525 -0.00701217 0)
(1.01662 -0.00726402 0)
(1.01804 -0.00750788 0)
(1.01951 -0.00774354 0)
(1.02103 -0.00797083 0)
(1.0226 -0.00818957 0)
(1.02422 -0.00839965 0)
(1.02588 -0.00860096 0)
(1.02758 -0.00879342 0)
(1.02933 -0.00897699 0)
(1.03113 -0.00915163 0)
(1.03296 -0.00931735 0)
(1.03483 -0.00947417 0)
(1.03673 -0.00962212 0)
(1.03868 -0.00976128 0)
(1.04065 -0.00989172 0)
(1.04266 -0.0100135 0)
(1.0447 -0.0101269 0)
(1.04677 -0.0102319 0)
(1.04887 -0.0103286 0)
(1.05099 -0.0104174 0)
(1.05314 -0.0104982 0)
(1.05531 -0.0105714 0)
(1.0575 -0.0106371 0)
(1.05972 -0.0106955 0)
(1.06195 -0.0107469 0)
(1.0642 -0.0107914 0)
(1.06647 -0.0108293 0)
(1.06876 -0.0108608 0)
(1.07106 -0.0108861 0)
(1.07337 -0.0109054 0)
(1.07569 -0.0109191 0)
(1.07802 -0.0109273 0)
(1.08037 -0.0109302 0)
(1.08272 -0.0109281 0)
(1.08508 -0.0109213 0)
(1.08745 -0.0109099 0)
(1.08982 -0.0108941 0)
(1.0922 -0.0108742 0)
(1.09458 -0.0108505 0)
(1.09696 -0.010823 0)
(1.09935 -0.0107921 0)
(1.10174 -0.0107578 0)
(1.10413 -0.0107205 0)
(1.10651 -0.0106803 0)
(1.1089 -0.0106374 0)
(1.11129 -0.0105919 0)
(1.11368 -0.010544 0)
(1.11606 -0.010494 0)
(1.11844 -0.0104419 0)
(1.12082 -0.0103879 0)
(1.1232 -0.0103322 0)
(1.12557 -0.0102749 0)
(1.12793 -0.0102161 0)
(1.13029 -0.010156 0)
(1.13265 -0.0100947 0)
(1.135 -0.0100323 0)
(1.13734 -0.00996888 0)
(1.13968 -0.0099046 0)
(1.14201 -0.00983955 0)
(1.14434 -0.00977381 0)
(1.14665 -0.00970749 0)
(1.14896 -0.00964066 0)
(1.15127 -0.00957341 0)
(1.15356 -0.0095058 0)
(1.15585 -0.00943792 0)
(1.15813 -0.00936983 0)
(1.1604 -0.00930159 0)
(1.16266 -0.00923326 0)
(1.16492 -0.00916489 0)
(1.16716 -0.00909653 0)
(1.1694 -0.00902823 0)
(1.17163 -0.00896004 0)
(1.17385 -0.00889199 0)
(1.17606 -0.00882412 0)
(1.17826 -0.00875646 0)
(1.18046 -0.00868905 0)
(1.18264 -0.00862192 0)
(1.18482 -0.00855508 0)
(1.18698 -0.00848857 0)
(1.18914 -0.0084224 0)
(1.19129 -0.00835659 0)
(1.19343 -0.00829116 0)
(1.19556 -0.00822612 0)
(1.19768 -0.00816149 0)
(1.19979 -0.00809728 0)
(1.2019 -0.0080335 0)
(1.20399 -0.00797015 0)
(1.20608 -0.00790725 0)
(1.20815 -0.00784479 0)
(1.21022 -0.00778278 0)
(1.21228 -0.00772123 0)
(1.21432 -0.00766013 0)
(1.21636 -0.00759949 0)
(1.21839 -0.00753931 0)
(1.22042 -0.00747958 0)
(1.22243 -0.00742031 0)
(1.22443 -0.00736149 0)
(1.22643 -0.00730313 0)
(1.22841 -0.0072452 0)
(1.23039 -0.00718772 0)
(1.23236 -0.00713068 0)
(1.23432 -0.00707407 0)
(1.23627 -0.00701789 0)
(1.23821 -0.00696213 0)
(1.24014 -0.00690679 0)
(1.24207 -0.00685186 0)
(1.24398 -0.00679733 0)
(1.24589 -0.0067432 0)
(1.24779 -0.00668947 0)
(1.24968 -0.00663612 0)
(1.25156 -0.00658315 0)
(1.25343 -0.00653055 0)
(1.25529 -0.00647831 0)
(1.25715 -0.00642644 0)
(1.259 -0.00637491 0)
(1.26083 -0.00632374 0)
(1.26266 -0.0062729 0)
(1.26448 -0.00622239 0)
(1.2663 -0.00617221 0)
(1.2681 -0.00612236 0)
(1.2699 -0.00607281 0)
(1.27168 -0.00602358 0)
(1.27346 -0.00597465 0)
(1.27523 -0.00592601 0)
(1.277 -0.00587767 0)
(1.27875 -0.00582961 0)
(1.28049 -0.00578184 0)
(1.28223 -0.00573434 0)
(1.28396 -0.00568711 0)
(1.28568 -0.00564015 0)
(1.28739 -0.00559346 0)
(1.28909 -0.00554702 0)
(1.29079 -0.00550084 0)
(1.29248 -0.0054549 0)
(1.29415 -0.00540922 0)
(1.29582 -0.00536378 0)
(1.29749 -0.00531858 0)
(1.29914 -0.00527361 0)
(1.30078 -0.00522889 0)
(1.30242 -0.00518439 0)
(1.30405 -0.00514012 0)
(1.30567 -0.00509608 0)
(1.30728 -0.00505226 0)
(1.30889 -0.00500867 0)
(1.31048 -0.0049653 0)
(1.31207 -0.00492214 0)
(1.31365 -0.00487921 0)
(1.31522 -0.00483649 0)
(1.31678 -0.00479398 0)
(1.31833 -0.00475168 0)
(1.31988 -0.0047096 0)
(1.32141 -0.00466773 0)
(1.32294 -0.00462607 0)
(1.32446 -0.00458462 0)
(1.32597 -0.00454338 0)
(1.32748 -0.00450234 0)
(1.32897 -0.00446152 0)
(1.33046 -0.0044209 0)
(1.33193 -0.00438048 0)
(1.3334 -0.00434028 0)
(1.33487 -0.00430028 0)
(1.33632 -0.00426049 0)
(1.33776 -0.0042209 0)
(1.3392 -0.00418152 0)
(1.34063 -0.00414235 0)
(1.34205 -0.00410338 0)
(1.34346 -0.00406463 0)
(1.34486 -0.00402607 0)
(1.34626 -0.00398773 0)
(1.34764 -0.00394959 0)
(1.34902 -0.00391167 0)
(1.35039 -0.00387395 0)
(1.35175 -0.00383644 0)
(1.3531 -0.00379914 0)
(1.35445 -0.00376205 0)
(1.35579 -0.00372517 0)
(1.35711 -0.0036885 0)
(1.35843 -0.00365204 0)
(1.35974 -0.00361579 0)
(1.36105 -0.00357975 0)
(1.36234 -0.00354393 0)
(1.36363 -0.00350832 0)
(1.3649 -0.00347292 0)
(1.36617 -0.00343773 0)
(1.36744 -0.00340276 0)
(1.36869 -0.00336801 0)
(1.36993 -0.00333346 0)
(1.37117 -0.00329914 0)
(1.3724 -0.00326502 0)
(1.37362 -0.00323113 0)
(1.37483 -0.00319744 0)
(1.37603 -0.00316398 0)
(1.37723 -0.00313073 0)
(1.37841 -0.00309769 0)
(1.37959 -0.00306487 0)
(1.38076 -0.00303227 0)
(1.38192 -0.00299988 0)
(1.38308 -0.00296771 0)
(1.38422 -0.00293575 0)
(1.38536 -0.00290401 0)
(1.38649 -0.00287249 0)
(1.38761 -0.00284118 0)
(1.38873 -0.00281009 0)
(1.38983 -0.00277921 0)
(1.39093 -0.00274854 0)
(1.39202 -0.00271809 0)
(1.3931 -0.00268785 0)
(1.39417 -0.00265783 0)
(1.39524 -0.00262802 0)
(1.39629 -0.00259841 0)
(1.39734 -0.00256902 0)
(1.39838 -0.00253984 0)
(1.39941 -0.00251087 0)
(1.40044 -0.0024821 0)
(1.40146 -0.00245354 0)
(1.40246 -0.00242519 0)
(1.40346 -0.00239704 0)
(1.40446 -0.0023691 0)
(1.40544 -0.00234135 0)
(1.40642 -0.00231381 0)
(1.40739 -0.00228646 0)
(1.40835 -0.00225932 0)
(1.4093 -0.00223236 0)
(1.41025 -0.00220561 0)
(1.41119 -0.00217904 0)
(1.41212 -0.00215266 0)
(1.41304 -0.00212647 0)
(1.41395 -0.00210046 0)
(1.41486 -0.00207464 0)
(1.41576 -0.00204899 0)
(1.41665 -0.00202353 0)
(1.41753 -0.00199823 0)
(1.41841 -0.00197311 0)
(1.41927 -0.00194816 0)
(1.42013 -0.00192338 0)
(1.42099 -0.00189875 0)
(1.42183 -0.00187429 0)
(1.42267 -0.00184998 0)
(1.4235 -0.00182582 0)
(1.42432 -0.00180181 0)
(1.42513 -0.00177795 0)
(1.42594 -0.00175422 0)
(1.42673 -0.00173063 0)
(1.42752 -0.00170718 0)
(1.42831 -0.00168385 0)
(1.42908 -0.00166064 0)
(1.42985 -0.00163755 0)
(1.43061 -0.00161458 0)
(1.43136 -0.00159171 0)
(1.4321 -0.00156895 0)
(1.43283 -0.00154629 0)
(1.43356 -0.00152373 0)
(1.43428 -0.00150125 0)
(1.43499 -0.00147886 0)
(1.43569 -0.00145655 0)
(1.43639 -0.00143432 0)
(1.43708 -0.00141215 0)
(1.43776 -0.00139005 0)
(1.43843 -0.00136801 0)
(1.43909 -0.00134603 0)
(1.43974 -0.0013241 0)
(1.44039 -0.00130222 0)
(1.44103 -0.00128038 0)
(1.44166 -0.00125858 0)
(1.44228 -0.00123681 0)
(1.44289 -0.00121508 0)
(1.44349 -0.00119338 0)
(1.44409 -0.0011717 0)
(1.44467 -0.00115005 0)
(1.44525 -0.00112842 0)
(1.44582 -0.00110681 0)
(1.44638 -0.00108522 0)
(1.44693 -0.00106365 0)
(1.44747 -0.0010421 0)
(1.44801 -0.00102057 0)
(1.44853 -0.000999053 0)
(1.44904 -0.000977561 0)
(1.44955 -0.000956093 0)
(1.45004 -0.000934651 0)
(1.45053 -0.000913238 0)
(1.45101 -0.000891859 0)
(1.45147 -0.000870518 0)
(1.45193 -0.00084922 0)
(1.45238 -0.000827971 0)
(1.45282 -0.000806777 0)
(1.45325 -0.000785647 0)
(1.45366 -0.000764586 0)
(1.45407 -0.000743605 0)
(1.45447 -0.000722712 0)
(1.45486 -0.000701916 0)
(1.45524 -0.000681227 0)
(1.45561 -0.000660657 0)
(1.45597 -0.000640216 0)
(1.45632 -0.000619916 0)
(1.45665 -0.000599768 0)
(1.45698 -0.000579785 0)
(1.4573 -0.00055998 0)
(1.45761 -0.000540366 0)
(1.45791 -0.000520954 0)
(1.4582 -0.000501759 0)
(1.45848 -0.000482794 0)
(1.45875 -0.000464072 0)
(1.45901 -0.000445606 0)
(1.45926 -0.000427409 0)
(1.4595 -0.000409495 0)
(1.45973 -0.000391875 0)
(1.45996 -0.000374563 0)
(1.46017 -0.000357571 0)
(1.46037 -0.00034091 0)
(1.46057 -0.000324592 0)
(1.46075 -0.000308627 0)
(1.46093 -0.000293027 0)
(1.4611 -0.000277801 0)
(1.46126 -0.000262958 0)
(1.46141 -0.000248507 0)
(1.46156 -0.000234457 0)
(1.46169 -0.000220814 0)
(1.46182 -0.000207586 0)
(1.46194 -0.000194779 0)
(1.46206 -0.000182399 0)
(1.46217 -0.000170449 0)
(1.46227 -0.000158935 0)
(1.46236 -0.00014786 0)
(1.46245 -0.000137226 0)
(1.46253 -0.000127035 0)
(1.4626 -0.000117288 0)
(1.46267 -0.000107987 0)
(1.46274 -9.9129e-05 0)
(1.4628 -9.07142e-05 0)
(1.46285 -8.274e-05 0)
(1.4629 -7.52031e-05 0)
(1.46295 -6.80995e-05 0)
(1.46299 -6.14242e-05 0)
(1.46302 -5.51709e-05 0)
(1.46306 -4.93326e-05 0)
(1.46309 -4.39011e-05 0)
(1.46311 -3.88671e-05 0)
(1.46314 -3.42203e-05 0)
(1.46316 -2.99493e-05 0)
(1.46318 -2.60417e-05 0)
(1.46319 -2.24839e-05 0)
(1.4632 -1.92618e-05 0)
(1.46322 -1.63599e-05 0)
(1.46323 -1.37623e-05 0)
(1.46323 -1.14522e-05 0)
(1.46324 -9.41235e-06 0)
(1.46325 -7.62495e-06 0)
(1.46325 -6.07198e-06 0)
(1.46325 -4.73524e-06 0)
(1.46326 -3.59654e-06 0)
(1.46326 -2.63782e-06 0)
(1.46326 -1.84138e-06 0)
(1.46326 -1.18996e-06 0)
(1.46326 -6.66911e-07 0)
(1.46326 -2.56335e-07 0)
(1.46326 5.69041e-08 0)
(1.46326 2.86865e-07 0)
(1.46326 4.46646e-07 0)
(1.46326 5.48271e-07 0)
(1.46326 6.0262e-07 0)
(1.46326 6.19426e-07 0)
(1.46326 6.07299e-07 0)
(1.46326 5.73751e-07 0)
(1.46326 5.25194e-07 0)
(1.46326 4.67009e-07 0)
(1.46326 4.03656e-07 0)
(1.46326 3.38703e-07 0)
(1.46326 2.74925e-07 0)
(1.46326 2.14416e-07 0)
(1.46326 1.58623e-07 0)
(1.46326 1.08487e-07 0)
(1.46326 6.45375e-08 0)
(1.46326 2.69298e-08 0)
(1.46326 -4.47323e-09 0)
(1.46326 -2.99949e-08 0)
(1.46326 -5.0086e-08 0)
(1.46326 -6.5313e-08 0)
(1.46326 -7.63112e-08 0)
(1.46326 -8.36957e-08 0)
(1.46326 -8.80606e-08 0)
(1.46326 -9.00073e-08 0)
(1.46326 -9.00568e-08 0)
(1.46326 -8.86618e-08 0)
(1.46326 -8.62469e-08 0)
(1.46326 -8.31261e-08 0)
(1.46326 -7.95849e-08 0)
(1.46326 -7.58727e-08 0)
(1.46326 -7.21279e-08 0)
(1.46326 -6.8466e-08 0)
(1.46326 -6.49965e-08 0)
(1.46326 -6.17631e-08 0)
(1.46326 -5.87843e-08 0)
(1.46326 -5.60843e-08 0)
(1.46326 -5.36557e-08 0)
(1.46326 -5.14717e-08 0)
(1.46326 -4.94969e-08 0)
(1.46326 -4.77303e-08 0)
(1.46326 -4.61502e-08 0)
(1.46326 -4.47057e-08 0)
(1.46326 -4.33859e-08 0)
(1.46326 -4.21784e-08 0)
(1.46326 -4.10406e-08 0)
(1.46326 -3.99613e-08 0)
(1.46326 -3.8943e-08 0)
(1.46326 -3.79709e-08 0)
(1.46326 -3.70508e-08 0)
(1.46326 -3.61505e-08 0)
(1.46326 -3.52523e-08 0)
(1.46326 -3.4388e-08 0)
(1.46326 -3.35567e-08 0)
(1.46326 -3.27372e-08 0)
(1.46326 -3.19362e-08 0)
(1.46326 -3.11526e-08 0)
(1.46326 -3.03747e-08 0)
(1.46326 -2.96259e-08 0)
(1.46326 -2.89017e-08 0)
(1.46326 -2.81829e-08 0)
(1.46326 -2.74877e-08 0)
(1.46326 -2.68043e-08 0)
(1.46326 -2.61461e-08 0)
(1.46326 -2.55086e-08 0)
(1.46326 -2.48689e-08 0)
(1.46326 -2.42699e-08 0)
(1.46326 -2.36988e-08 0)
(1.46326 -2.31138e-08 0)
(1.46326 -2.25563e-08 0)
(1.46326 -2.20268e-08 0)
(1.46326 -2.14991e-08 0)
(1.46326 -2.09922e-08 0)
(1.46326 -2.05077e-08 0)
(1.46326 -2.0023e-08 0)
(1.46326 -1.9558e-08 0)
(1.46326 -1.91016e-08 0)
(1.46326 -1.86502e-08 0)
(1.46326 -1.82335e-08 0)
(1.46326 -1.78154e-08 0)
(1.46326 -1.7386e-08 0)
(1.46326 -1.69949e-08 0)
(1.46326 -1.66045e-08 0)
(1.46326 -1.62245e-08 0)
(1.46326 -1.58428e-08 0)
(1.46326 -1.5459e-08 0)
(1.46326 -1.51193e-08 0)
(1.46326 -1.47895e-08 0)
(1.46326 -1.44244e-08 0)
(1.46326 -1.40776e-08 0)
(1.46326 -1.3778e-08 0)
(1.46326 -1.34679e-08 0)
(1.46326 -1.31366e-08 0)
(1.46326 -1.28481e-08 0)
(1.46326 -1.25764e-08 0)
(1.46326 -1.22932e-08 0)
(1.46326 -1.2016e-08 0)
(1.46326 -1.17627e-08 0)
(1.46326 -1.15035e-08 0)
(1.46326 -1.12558e-08 0)
(1.46326 -1.104e-08 0)
(1.46326 -1.08003e-08 0)
(1.46326 -1.0566e-08 0)
(1.46326 -1.03537e-08 0)
(1.46326 -1.01458e-08 0)
(1.46326 -9.9516e-09 0)
(1.46326 -9.74628e-09 0)
(1.46326 -9.54193e-09 0)
(1.46326 -9.35289e-09 0)
(1.46326 -9.17879e-09 0)
(1.46326 -9.00337e-09 0)
(1.46326 -8.81283e-09 0)
(1.46326 -8.64342e-09 0)
(1.46326 -8.48836e-09 0)
(1.46326 -8.31382e-09 0)
(1.46326 -8.15728e-09 0)
(1.46326 -7.99624e-09 0)
(1.46326 -7.84342e-09 0)
(1.46326 -7.71682e-09 0)
(1.46326 -7.54927e-09 0)
(1.46326 -7.40253e-09 0)
(1.46326 -7.274e-09 0)
(1.46326 -7.14529e-09 0)
(1.46326 -7.00012e-09 0)
(1.46326 -6.86947e-09 0)
(1.46326 -6.74036e-09 0)
(1.46326 -6.61267e-09 0)
(1.46326 -6.48248e-09 0)
(1.46326 -6.37336e-09 0)
(1.46326 -6.24335e-09 0)
(1.46326 -6.1212e-09 0)
(1.46326 -6.02974e-09 0)
(1.46326 -5.89976e-09 0)
(1.46326 -5.79429e-09 0)
(1.46326 -5.7023e-09 0)
(1.46326 -5.59731e-09 0)
(1.46326 -5.48535e-09 0)
(1.46326 -5.39927e-09 0)
(1.46326 -5.30389e-09 0)
(1.46326 -5.21437e-09 0)
(1.46326 -5.13388e-09 0)
(1.46326 -5.05148e-09 0)
(1.46326 -4.96234e-09 0)
(1.46326 -4.89701e-09 0)
(1.46326 -4.81709e-09 0)
(1.46326 -4.74458e-09 0)
(1.46326 -4.68319e-09 0)
(1.46326 -4.58066e-09 0)
(1.46326 -4.56304e-09 0)
(1.46326 -4.48151e-09 0)
(1.46326 -4.39705e-09 0)
(1.46326 -4.34653e-09 0)
(1.46326 -4.28742e-09 0)
(1.46326 -4.22979e-09 0)
(1.46326 -4.15698e-09 0)
(1.46326 -4.09352e-09 0)
(1.46326 -4.02221e-09 0)
(1.46326 -3.98835e-09 0)
(1.46326 -3.90142e-09 0)
(1.46326 -3.83926e-09 0)
(1.46326 -3.78248e-09 0)
(1.46326 -3.72484e-09 0)
(1.46326 -3.66903e-09 0)
(1.46326 -3.61204e-09 0)
(1.46326 -3.5414e-09 0)
(1.46326 -3.49591e-09 0)
(1.46326 -3.42926e-09 0)
(1.46326 -3.39762e-09 0)
(1.46326 -3.30144e-09 0)
(1.46326 -3.27579e-09 0)
(1.46326 -3.2248e-09 0)
(1.46326 -3.14759e-09 0)
(1.46326 -3.13091e-09 0)
(1.46326 -3.06845e-09 0)
(1.46326 -3.01937e-09 0)
(1.46326 -2.98752e-09 0)
(1.46326 -2.92808e-09 0)
(1.46326 -2.92127e-09 0)
(1.46326 -2.87191e-09 0)
(1.46326 -2.81874e-09 0)
(1.46326 -2.79294e-09 0)
(1.46326 -2.76256e-09 0)
(1.46326 -2.74407e-09 0)
(1.46326 -2.70592e-09 0)
(1.46326 -2.66416e-09 0)
(1.46326 -2.63647e-09 0)
(1.46326 -2.59598e-09 0)
(1.46326 -2.55829e-09 0)
(1.46326 -2.53366e-09 0)
(1.46326 -2.50208e-09 0)
(1.46326 -2.45884e-09 0)
(1.46326 -2.41636e-09 0)
(1.46326 -2.40146e-09 0)
(1.46326 -2.36114e-09 0)
(1.46326 -2.32469e-09 0)
(1.46326 -2.31929e-09 0)
(1.46326 -2.26062e-09 0)
(1.46326 -2.24351e-09 0)
(1.46326 -2.20903e-09 0)
(1.46326 -2.14853e-09 0)
(1.46326 -2.16064e-09 0)
(1.46326 -2.07732e-09 0)
(1.46326 -2.10487e-09 0)
(1.46326 -2.03912e-09 0)
(1.46326 -2.03571e-09 0)
(1.46326 -1.96952e-09 0)
(1.46326 -1.95991e-09 0)
(1.46326 -1.94428e-09 0)
(1.46326 -1.91667e-09 0)
(1.46326 -1.85971e-09 0)
(1.46326 -1.87514e-09 0)
(1.46326 -1.82083e-09 0)
(1.46326 -1.85955e-09 0)
(1.46326 -1.76733e-09 0)
(1.46326 -1.84711e-09 0)
(1.46326 -1.70961e-09 0)
(1.46326 -1.85237e-09 0)
(1.46326 -1.55688e-09 0)
(1.46326 -1.57108e-09 0)
(1.46326 -1.10368e-09 0)
(1.46326 1.89176e-10 0)
(1.00001 -0.000273701 0)
(1.00006 -0.000823102 0)
(1.00018 -0.00137475 0)
(1.00037 -0.00192775 0)