/*--------------------------------*- C++ -*----------------------------------*\
  =========                 |
  \\      /  F ield         | OpenFOAM: The Open Source CFD Toolbox
   \\    /   O peration     | Website:  https://openfoam.org
    \\  /    A nd           | Version:  7
     \\/     M anipulation  |
\*---------------------------------------------------------------------------*/
FoamFile
{
    version     2.0;
    format      ascii;
    class       volScalarField;
    location    "7.5";
    object      p;
}
// * * * * * * * * * * * * * * * * * * * * * * * * * * * * * * * * * * * * * //

dimensions      [0 2 -2 0 0 0 0];

internalField   nonuniform List<scalar> 
1500
(
1.88911
1.8782
1.85725
1.82901
1.79754
1.76569
1.73472
1.7051
1.67715
1.65115
1.62714
1.60498
1.58439
1.56508
1.5468
1.52937
1.51263
1.49645
1.48074
1.46543
1.45047
1.4358
1.42141
1.40726
1.39334
1.37962
1.36609
1.35275
1.33956
1.32653
1.31364
1.30089
1.28827
1.27576
1.26336
1.25106
1.23886
1.22676
1.21473
1.20279
1.19092
1.17912
1.16739
1.15572
1.14411
1.13255
1.12105
1.10959
1.09818
1.08681
1.07548
1.06419
1.05294
1.04172
1.03053
1.01937
1.00823
0.997128
0.986047
0.974989
0.963954
0.95294
0.941945
0.93097
0.920013
0.909073
0.898149
0.887242
0.876349
0.86547
0.854606
0.843754
0.832914
0.822086
0.811269
0.800462
0.789664
0.778875
0.768093
0.757318
0.746549
0.735786
0.725027
0.714272
0.70352
0.69277
0.682023
0.671278
0.660534
0.649791
0.639049
0.628307
0.617566
0.606825
0.596085
0.585344
0.574604
0.563864
0.553123
0.542383
0.531643
0.520902
0.510162
0.499422
0.488682
0.477941
0.467201
0.456461
0.445721
0.43498
0.42424
0.4135
0.40276
0.392019
0.381279
0.370539
0.359799
0.349058
0.338318
0.327578
0.316838
0.306097
0.295357
0.284617
0.273877
0.263136
0.252396
0.241656
0.230916
0.220175
0.209435
0.198695
0.187954
0.177214
0.166474
0.155734
0.144993
0.134253
0.123513
0.112773
0.102032
0.0912922
0.0805519
0.0698117
0.0590714
0.0483311
0.0375909
0.0268506
0.0161104
0.00537013
1.90106
1.88711
1.862
1.83041
1.79701
1.76411
1.73246
1.70241
1.67434
1.64846
1.62474
1.60291
1.58264
1.56362
1.5456
1.52837
1.51179
1.49575
1.48015
1.46492
1.45003
1.43542
1.42107
1.40695
1.39306
1.37937
1.36586
1.35253
1.33937
1.32635
1.31348
1.30074
1.28813
1.27563
1.26324
1.25095
1.23876
1.22666
1.21465
1.20271
1.19085
1.17905
1.16733
1.15566
1.14405
1.1325
1.121
1.10955
1.09814
1.08677
1.07545
1.06416
1.0529
1.04169
1.0305
1.01934
1.00821
0.997104
0.986024
0.974968
0.963934
0.95292
0.941927
0.930953
0.919996
0.909057
0.898134
0.887227
0.876335
0.865458
0.854593
0.843742
0.832904
0.822076
0.81126
0.800453
0.789656
0.778868
0.768087
0.757313
0.746544
0.735782
0.725023
0.714269
0.703517
0.692769
0.682022
0.671277
0.660533
0.64979
0.639049
0.628307
0.617566
0.606825
0.596085
0.585344
0.574604
0.563864
0.553123
0.542383
0.531643
0.520902
0.510162
0.499422
0.488682
0.477941
0.467201
0.456461
0.445721
0.43498
0.42424
0.4135
0.40276
0.392019
0.381279
0.370539
0.359799
0.349058
0.338318
0.327578
0.316838
0.306097
0.295357
0.284617
0.273877
0.263136
0.252396
0.241656
0.230916
0.220175
0.209435
0.198695
0.187954
0.177214
0.166474
0.155734
0.144993
0.134253
0.123513
0.112773
0.102032
0.0912922
0.0805519
0.0698117
0.0590714
0.0483311
0.0375909
0.0268506
0.0161104
0.00537013
1.92777
1.90465
1.86986
1.83194
1.79524
1.76043
1.72752
1.69686
1.66881
1.64339
1.62033
1.59919
1.57958
1.56113
1.54359
1.52676
1.51049
1.49468
1.47926
1.46418
1.44939
1.43487
1.42059
1.40653
1.39268
1.37903
1.36556
1.35226
1.33911
1.32612
1.31327
1.30055
1.28795
1.27547
1.26309
1.25081
1.23863
1.22654
1.21454
1.20261
1.19075
1.17897
1.16725
1.15559
1.14398
1.13244
1.12094
1.10949
1.09808
1.08672
1.0754
1.06411
1.05286
1.04165
1.03046
1.0193
1.00818
0.997074
0.985996
0.974941
0.963909
0.952897
0.941905
0.930932
0.919977
0.909039
0.898117
0.887211
0.87632
0.865443
0.85458
0.84373
0.832892
0.822065
0.81125
0.800444
0.789648
0.778861
0.76808
0.757307
0.74654
0.735778
0.72502
0.714266
0.703515
0.692767
0.68202
0.671276
0.660532
0.64979
0.639048
0.628307
0.617566
0.606825
0.596085
0.585344
0.574604
0.563864
0.553123
0.542383
0.531643
0.520902
0.510162
0.499422
0.488682
0.477941
0.467201
0.456461
0.445721
0.43498
0.42424
0.4135
0.40276
0.392019
0.381279
0.370539
0.359799
0.349058
0.338318
0.327578
0.316838
0.306097
0.295357
0.284617
0.273877
0.263136
0.252396
0.241656
0.230916
0.220175
0.209435
0.198695
0.187955
0.177214
0.166474
0.155734
0.144993
0.134253
0.123513
0.112773
0.102032
0.0912922
0.0805519
0.0698117
0.0590714
0.0483312
0.0375909
0.0268506
0.0161104
0.00537012
1.97567
1.9297
1.87729
1.83131
1.79111
1.75391
1.71949
1.68851
1.66112
1.63687
1.61506
1.59507
1.57641
1.55872
1.54177
1.52538
1.50943
1.49385
1.4786
1.46363
1.44892
1.43446
1.42022
1.4062
1.39239
1.37876
1.36531
1.35203
1.33891
1.32594
1.3131
1.30039
1.28781
1.27533
1.26297
1.2507
1.23853
1.22645
1.21445
1.20252
1.19068
1.17889
1.16718
1.15552
1.14393
1.13238
1.12089
1.10944
1.09804
1.08668
1.07536
1.06408
1.05283
1.04162
1.03043
1.01928
1.00815
0.99705
0.985973
0.97492
0.963889
0.952879
0.941888
0.930916
0.919962
0.909025
0.898104
0.887199
0.876309
0.865433
0.854571
0.843722
0.832885
0.822059
0.811245
0.80044
0.789645
0.778857
0.768078
0.757305
0.746538
0.735776
0.725019
0.714265
0.703515
0.692766
0.68202
0.671276
0.660532
0.64979
0.639048
0.628307
0.617566
0.606825
0.596085
0.585344
0.574604
0.563864
0.553123
0.542383
0.531643
0.520902
0.510162
0.499422
0.488682
0.477941
0.467201
0.456461
0.445721
0.43498
0.42424
0.4135
0.40276
0.392019
0.381279
0.370539
0.359799
0.349058
0.338318
0.327578
0.316838
0.306097
0.295357
0.284617
0.273877
0.263136
0.252396
0.241656
0.230916
0.220175
0.209435
0.198695
0.187955
0.177214
0.166474
0.155734
0.144993
0.134253
0.123513
0.112773
0.102032
0.0912922
0.0805519
0.0698117
0.0590714
0.0483312
0.0375909
0.0268506
0.0161104
0.00537013
2.10074
1.97957
1.89126
1.83504
1.79045
1.74993
1.71341
1.68179
1.65474
1.63125
1.61032
1.5912
1.57332
1.55629
1.53986
1.52386
1.50822
1.49286
1.47777
1.46292
1.4483
1.43391
1.41974
1.40577
1.39199
1.3784
1.36498
1.35173
1.33863
1.32568
1.31286
1.30017
1.2876
1.27514
1.26279
1.25053
1.23837
1.2263
1.21431
1.2024
1.19056
1.17878
1.16707
1.15543
1.14383
1.1323
1.12081
1.10937
1.09797
1.08661
1.0753
1.06402
1.05278
1.04156
1.03038
1.01923
1.00811
0.997011
0.985937
0.974886
0.963857
0.952849
0.941861
0.930891
0.919939
0.909004
0.898085
0.887182
0.876294
0.86542
0.85456
0.843712
0.832876
0.822052
0.811239
0.800435
0.789641
0.778855
0.768076
0.757304
0.746537
0.735776
0.725019
0.714265
0.703514
0.692766
0.68202
0.671276
0.660532
0.64979
0.639048
0.628307
0.617566
0.606825
0.596085
0.585344
0.574604
0.563864
0.553123
0.542383
0.531643
0.520902
0.510162
0.499422
0.488682
0.477941
0.467201
0.456461
0.445721
0.43498
0.42424
0.4135
0.40276
0.392019
0.381279
0.370539
0.359799
0.349058
0.338318
0.327578
0.316838
0.306097
0.295357
0.284617
0.273877
0.263136
0.252396
0.241656
0.230916
0.220175
0.209435
0.198695
0.187955
0.177214
0.166474
0.155734
0.144993
0.134253
0.123513
0.112773
0.102032
0.0912922
0.0805519
0.0698117
0.0590714
0.0483312
0.0375909
0.0268506
0.0161104
0.00537013
1.88911
1.8782
1.85725
1.82901
1.79754
1.76569
1.73472
1.7051
1.67715
1.65115
1.62714
1.60498
1.58439
1.56508
1.5468
1.52937
1.51263
1.49645
1.48074
1.46543
1.45047
1.4358
1.42141
1.40726
1.39334
1.37962
1.36609
1.35275
1.33956
1.32653
1.31364
1.30089
1.28827
1.27576
1.26336
1.25106
1.23886
1.22676
1.21473
1.20279
1.19092
1.17912
1.16739
1.15572
1.14411
1.13255
1.12105
1.10959
1.09818
1.08681
1.07548
1.06419
1.05294
1.04172
1.03053
1.01937
1.00823
0.997128
0.986047
0.974989
0.963954
0.95294
0.941945
0.93097
0.920013
0.909073
0.898149
0.887242
0.876349
0.86547
0.854606
0.843754
0.832914
0.822086
0.811269
0.800462
0.789664
0.778875
0.768093
0.757318
0.746549
0.735786
0.725027
0.714272
0.70352
0.69277
0.682023
0.671278
0.660534
0.649791
0.639049
0.628307
0.617566
0.606825
0.596085
0.585344
0.574604
0.563864
0.553123
0.542383
0.531643
0.520902
0.510162
0.499422
0.488682
0.477941
0.467201
0.456461
0.445721
0.43498
0.42424
0.4135
0.40276
0.392019
0.381279
0.370539
0.359799
0.349058
0.338318
0.327578
0.316838
0.306097
0.295357
0.284617
0.273877
0.263136
0.252396
0.241656
0.230916
0.220175
0.209435
0.198695
0.187954
0.177214
0.166474
0.155734
0.144993
0.134253
0.123513
0.112773
0.102032
0.0912922
0.0805519
0.0698117
0.0590714
0.0483311
0.0375909
0.0268506
0.0161104
0.00537013
1.90106
1.88711
1.862
1.83041
1.79701
1.76411
1.73246
1.70241
1.67434
1.64846
1.62474
1.60291
1.58264
1.56362
1.5456
1.52837
1.51179
1.49575
1.48015
1.46492
1.45003
1.43542
1.42107
1.40695
1.39306
1.37937
1.36586
1.35253
1.33937
1.32635
1.31348
1.30074
1.28813
1.27563
1.26324
1.25095
1.23876
1.22666
1.21465
1.20271
1.19085
1.17905
1.16733
1.15566
1.14405
1.1325
1.121
1.10955
1.09814
1.08677
1.07545
1.06416
1.0529
1.04169
1.0305
1.01934
1.00821
0.997104
0.986024
0.974968
0.963933
0.95292
0.941927
0.930953
0.919996
0.909057
0.898134
0.887227
0.876335
0.865458
0.854593
0.843742
0.832904
0.822076
0.81126
0.800453
0.789656
0.778868
0.768087
0.757313
0.746544
0.735782
0.725023
0.714269
0.703517
0.692769
0.682022
0.671277
0.660533
0.64979
0.639049
0.628307
0.617566
0.606825
0.596085
0.585344
0.574604
0.563864
0.553123
0.542383
0.531643
0.520902
0.510162
0.499422
0.488682
0.477941
0.467201
0.456461
0.445721
0.43498
0.42424
0.4135
0.40276
0.392019
0.381279
0.370539
0.359799
0.349058
0.338318
0.327578
0.316838
0.306097
0.295357
0.284617
0.273877
0.263136
0.252396
0.241656
0.230916
0.220175
0.209435
0.198695
0.187954
0.177214
0.166474
0.155734
0.144993
0.134253
0.123513
0.112773
0.102032
0.0912922
0.0805519
0.0698117
0.0590714
0.0483311
0.0375909
0.0268506
0.0161104
0.00537013
1.92777
1.90465
1.86986
1.83194
1.79524
1.76043
1.72752
1.69686
1.66881
1.64339
1.62033
1.59919
1.57958
1.56113
1.54359
1.52676
1.51049
1.49468
1.47926
1.46418
1.44939
1.43487
1.42059
1.40653
1.39268
1.37903
1.36556
1.35226
1.33911
1.32612
1.31327
1.30055
1.28795
1.27547
1.26309
1.25081
1.23863
1.22654
1.21454
1.20261
1.19075
1.17897
1.16725
1.15559
1.14398
1.13244
1.12094
1.10949
1.09808
1.08672
1.0754
1.06411
1.05286
1.04165
1.03046
1.0193
1.00818
0.997074
0.985996
0.974941
0.963909
0.952897
0.941905
0.930932
0.919977
0.909039
0.898117
0.887211
0.87632
0.865443
0.85458
0.84373
0.832892
0.822065
0.81125
0.800444
0.789648
0.778861
0.76808
0.757307
0.74654
0.735778
0.72502
0.714266
0.703515
0.692767
0.68202
0.671276
0.660532
0.64979
0.639048
0.628307
0.617566
0.606825
0.596085
0.585344
0.574604
0.563864
0.553123
0.542383
0.531643
0.520902
0.510162
0.499422
0.488682
0.477941
0.467201
0.456461
0.445721
0.43498
0.42424
0.4135
0.40276
0.392019
0.381279
0.370539
0.359799
0.349058
0.338318
0.327578
0.316838
0.306097
0.295357
0.284617
0.273877
0.263136
0.252396
0.241656
0.230916
0.220175
0.209435
0.198695
0.187954
0.177214
0.166474
0.155734
0.144993
0.134253
0.123513
0.112773
0.102032
0.0912922
0.0805519
0.0698117
0.0590714
0.0483312
0.0375909
0.0268506
0.0161104
0.00537013
1.97567
1.9297
1.87729
1.83131
1.79111
1.75391
1.71949
1.68851
1.66112
1.63687
1.61506
1.59507
1.57641
1.55872
1.54177
1.52538
1.50943
1.49385
1.4786
1.46363
1.44892
1.43446
1.42022
1.4062
1.39239
1.37876
1.36531
1.35203
1.33891
1.32594
1.3131
1.30039
1.28781
1.27533
1.26297
1.2507
1.23853
1.22645
1.21445
1.20252
1.19068
1.17889
1.16718
1.15552
1.14393
1.13238
1.12089
1.10944
1.09804
1.08668
1.07536
1.06408
1.05283
1.04162
1.03043
1.01928
1.00815
0.99705
0.985973
0.97492
0.963889
0.952879
0.941888
0.930916
0.919962
0.909025
0.898104
0.887199
0.876309
0.865433
0.854571
0.843722
0.832885
0.822059
0.811245
0.80044
0.789645
0.778857
0.768078
0.757305
0.746538
0.735776
0.725019
0.714265
0.703515
0.692766
0.68202
0.671276
0.660532
0.64979
0.639048
0.628307
0.617566
0.606825
0.596085
0.585344
0.574604
0.563864
0.553123
0.542383
0.531643
0.520902
0.510162
0.499422
0.488682
0.477941
0.467201
0.456461
0.445721
0.43498
0.42424
0.4135
0.40276
0.392019
0.381279
0.370539
0.359799
0.349058
0.338318
0.327578
0.316838
0.306097
0.295357
0.284617
0.273877
0.263136
0.252396
0.241656
0.230916
0.220175
0.209435
0.198695
0.187954
0.177214
0.166474
0.155734
0.144993
0.134253
0.123513
0.112773
0.102032
0.0912922
0.0805519
0.0698117
0.0590714
0.0483312
0.0375909
0.0268506
0.0161104
0.00537013
2.10074
1.97957
1.89126
1.83504
1.79045
1.74993
1.71341
1.68179
1.65474
1.63125
1.61032
1.5912
1.57332
1.55629
1.53986
1.52386
1.50822
1.49286
1.47777
1.46292
1.4483
1.43391
1.41974
1.40577
1.39199
1.3784
1.36498
1.35173
1.33863
1.32568
1.31286
1.30017
1.2876
1.27514
1.26279
1.25053
1.23837
1.2263
1.21431
1.2024
1.19056
1.17878
1.16707
1.15543
1.14383
1.1323
1.12081
1.10937
1.09797
1.08661
1.0753
1.06402
1.05278
1.04156
1.03038
1.01923
1.00811
0.997011
0.985937
0.974886
0.963857
0.952849
0.94186
0.930891
0.919939
0.909004
0.898085
0.887182
0.876294
0.86542
0.85456
0.843712
0.832876
0.822052
0.811239
0.800435
0.789641
0.778855
0.768076
0.757304
0.746537
0.735776
0.725019
0.714265
0.703515
0.692766
0.68202
0.671276
0.660532
0.64979
0.639048
0.628307
0.617566
0.606825
0.596085
0.585344
0.574604
0.563864
0.553123
0.542383
0.531643
0.520902
0.510162
0.499422
0.488682
0.477941
0.467201
0.456461
0.445721
0.43498
0.42424
0.4135
0.40276
0.392019
0.381279
0.370539
0.359799
0.349058
0.338318
0.327578
0.316838
0.306097
0.295357
0.284617
0.273877
0.263136
0.252396
0.241656
0.230916
0.220175
0.209435
0.198695
0.187954
0.177214
0.166474
0.155734
0.144993
0.134253
0.123513
0.112773
0.102032
0.0912922
0.0805519
0.0698117
0.0590714
0.0483312
0.0375909
0.0268506
0.0161104
0.00537013
)
;

boundaryField
{
    inlet
    {
        type            zeroGradient;
    }
    outlet
    {
        type            fixedValue;
        value           uniform 0;
    }
    top
    {
        type            zeroGradient;
    }
    bottom
    {
        type            zeroGradient;
    }
    defaultFaces
    {
        type            empty;
    }
}


// ************************************************************************* //
