/*--------------------------------*- C++ -*----------------------------------*\
  =========                 |
  \\      /  F ield         | OpenFOAM: The Open Source CFD Toolbox
   \\    /   O peration     | Website:  https://openfoam.org
    \\  /    A nd           | Version:  7
     \\/     M anipulation  |
\*---------------------------------------------------------------------------*/
FoamFile
{
    version     2.0;
    format      ascii;
    class       surfaceScalarField;
    location    "7.5";
    object      phi;
}
// * * * * * * * * * * * * * * * * * * * * * * * * * * * * * * * * * * * * * //

dimensions      [0 3 -1 0 0 0 0];

internalField   nonuniform List<scalar> 
2840
(
0.0100654
-6.53948e-05
-7.42845e-13
0.0102509
-0.000185527
-2.55007e-12
0.0105092
-0.000258238
-1.78792e-12
0.0107948
-0.000285639
-1.06224e-12
0.011085
-0.000290163
-1.68816e-12
0.011369
-0.000284043
-8.26301e-13
0.0116389
-0.000269847
-1.1251e-12
0.0118879
-0.000249016
-1.41232e-12
0.0121128
-0.000224953
-9.79135e-13
0.0123143
-0.000201452
-9.75225e-13
0.0124944
-0.000180118
-1.44596e-12
0.0126558
-0.000161392
-3.6751e-13
0.012801
-0.000145217
1.41038e-12
0.0129324
-0.000131362
1.56928e-12
0.0130519
-0.000119524
6.05948e-13
0.0131613
-0.00010938
-1.88515e-14
0.0132619
-0.000100623
-6.59155e-13
0.0133549
-9.29815e-05
-5.19595e-13
0.0134411
-8.62254e-05
5.94135e-13
0.0135213
-8.01763e-05
4.18705e-13
0.013596
-7.47013e-05
-9.43451e-13
0.0136657
-6.97025e-05
-1.18052e-12
0.0137308
-6.51077e-05
-9.4719e-14
0.0137916
-6.08629e-05
4.57026e-13
0.0138486
-5.6927e-05
7.97955e-13
0.0139018
-5.32681e-05
1.0719e-12
0.0139517
-4.98608e-05
-3.30192e-15
0.0139984
-4.66841e-05
-8.60558e-13
0.0140421
-4.37199e-05
-9.02614e-14
0.0140831
-4.09524e-05
1.22215e-12
0.0141214
-3.83675e-05
1.72622e-12
0.0141574
-3.59522e-05
1.7895e-12
0.0141911
-3.36947e-05
1.71045e-12
0.0142227
-3.15841e-05
1.57568e-12
0.0142523
-2.96104e-05
1.61868e-12
0.01428
-2.77641e-05
1.27199e-12
0.0143061
-2.60366e-05
8.77655e-13
0.0143305
-2.44198e-05
8.73385e-13
0.0143534
-2.29064e-05
9.70284e-13
0.0143749
-2.14893e-05
-8.64132e-14
0.014395
-2.01621e-05
-1.68439e-12
0.014414
-1.89189e-05
-2.74436e-12
0.0144317
-1.77542e-05
-3.02883e-12
0.0144484
-1.66627e-05
-2.90435e-12
0.014464
-1.56396e-05
-2.74321e-12
0.0144787
-1.46806e-05
-2.91569e-12
0.0144925
-1.37814e-05
-3.04458e-12
0.0145054
-1.29382e-05
-2.85841e-12
0.0145176
-1.21473e-05
-2.33948e-12
0.014529
-1.14053e-05
-1.0211e-12
0.0145397
-1.0709e-05
8.00255e-13
0.0145497
-1.00556e-05
1.96076e-12
0.0145592
-9.442e-06
1.815e-12
0.014568
-8.86566e-06
9.3592e-13
0.0145764
-8.32399e-06
1.33659e-12
0.0145842
-7.81453e-06
2.5762e-12
0.0145915
-7.33492e-06
3.57314e-12
0.0145984
-6.88286e-06
3.50019e-12
0.0146049
-6.45612e-06
3.03983e-12
0.0146109
-6.05255e-06
2.77792e-12
0.0146166
-5.67004e-06
2.58452e-12
0.0146219
-5.30656e-06
2.55027e-12
0.0146268
-4.9602e-06
2.37115e-12
0.0146315
-4.62912e-06
1.83634e-12
0.0146358
-4.31168e-06
1.16461e-12
0.0146398
-4.00641e-06
7.86249e-13
0.0146435
-3.71205e-06
4.12958e-13
0.0146469
-3.42763e-06
-3.22554e-14
0.0146501
-3.15245e-06
-1.11541e-13
0.014653
-2.8861e-06
-1.14952e-13
0.0146556
-2.62851e-06
-6.8232e-13
0.014658
-2.3799e-06
-1.46189e-12
0.0146601
-2.14074e-06
-1.64984e-12
0.014662
-1.91174e-06
-1.22108e-12
0.0146637
-1.69375e-06
-1.0022e-12
0.0146652
-1.48773e-06
-1.0629e-12
0.0146665
-1.29464e-06
-1.85005e-12
0.0146676
-1.11537e-06
-2.78431e-12
0.0146686
-9.50668e-07
-2.83309e-12
0.0146694
-8.01083e-07
-1.78097e-12
0.01467
-6.669e-07
-1.26392e-12
0.0146706
-5.48119e-07
-1.4127e-12
0.014671
-4.44441e-07
-1.16592e-12
0.0146714
-3.55282e-07
-6.10989e-13
0.0146717
-2.79796e-07
-8.37448e-13
0.0146719
-2.16923e-07
-2.12351e-12
0.0146721
-1.65439e-07
-2.97628e-12
0.0146722
-1.24021e-07
-3.20806e-12
0.0146723
-9.13091e-08
-2.59158e-12
0.0146723
-6.59622e-08
-6.7461e-14
0.0146724
-4.67101e-08
2.9072e-12
0.0146724
-3.23876e-08
2.17178e-12
0.0146724
-2.19582e-08
-7.6639e-13
0.0146724
-1.45329e-08
-1.20493e-12
0.0146725
-9.37189e-09
1.73533e-12
0.0146725
-5.87567e-09
3.33769e-12
0.0146725
-3.56992e-09
2.77916e-12
0.0146725
-2.09292e-09
2.5139e-12
0.0146725
-1.17876e-09
3.31221e-12
0.0146725
-6.33383e-10
2.43637e-12
0.0146725
-3.19918e-10
1.51452e-12
0.0146725
-1.47744e-10
1.93446e-12
0.0146725
-5.91475e-11
2.81219e-12
0.0146725
-1.91547e-11
2.58543e-12
0.0146725
-5.85031e-12
1.37326e-12
0.0146725
-1.88226e-13
6.19398e-15
0.0146725
2.06939e-12
-1.53651e-12
0.0146725
2.6497e-12
-2.23369e-12
0.0146725
2.93867e-12
-1.75951e-12
0.0146725
4.04722e-12
-9.05634e-13
0.0146725
3.20146e-12
-1.37417e-12
0.0146725
1.37629e-12
-2.91898e-12
0.0146725
2.12877e-12
-2.48927e-12
0.0146725
3.86998e-12
-8.11802e-13
0.0146725
3.20275e-12
-8.0593e-13
0.0146725
2.06444e-12
-2.57681e-12
0.0146725
3.54729e-12
-1.81541e-12
0.0146725
4.66524e-12
-1.94591e-13
0.0146725
4.03589e-12
-5.90764e-13
0.0146725
1.94301e-12
-8.75451e-13
0.0146725
8.36324e-13
5.63101e-13
0.0146725
-7.04924e-14
5.89508e-13
0.0146725
-8.26297e-14
-6.13724e-13
0.0146725
7.70104e-13
-1.56899e-14
0.0146725
-2.19403e-12
5.0702e-13
0.0146725
-3.34779e-12
-4.71812e-15
0.0146725
-1.49319e-12
7.91919e-13
0.0146725
-2.63383e-12
1.35967e-12
0.0146725
-4.44732e-12
8.41785e-13
0.0146725
-6.57818e-13
3.19548e-13
0.0146725
9.88383e-13
-4.96041e-13
0.0146725
-1.10683e-12
-9.98222e-14
0.0146725
-1.66529e-12
-2.39322e-13
0.0146725
-2.31972e-13
-9.85198e-13
0.0146725
8.19532e-13
1.02553e-12
0.0146725
4.07111e-13
2.26585e-12
0.0146725
-1.19419e-12
3.66937e-13
0.0146725
-2.83171e-12
9.7983e-13
0.0146725
-1.12337e-12
2.14991e-12
0.0146725
1.13259e-12
2.17289e-12
0.0146725
-1.33532e-12
2.07098e-12
0.0146725
-4.61138e-12
1.33872e-12
0.0146725
-3.29814e-12
3.88715e-12
0.0146725
-1.68217e-12
4.33579e-12
0.0146725
-4.68575e-12
9.41871e-13
0.0146725
-9.80832e-12
-2.09211e-13
0.0146725
-1.01175e-11
3.83996e-12
0.0146725
-1.65221e-11
5.01326e-12
0.0146725
-2.13689e-11
5.21573e-12
-3.21781e-11
4.12982e-12
0.0100904
-0.000155813
0.0103203
-0.000415448
0.0106081
-0.000546036
0.010907
-0.000584492
0.0111994
-0.000582543
0.0114749
-0.000559576
0.0117244
-0.000519352
0.0119428
-0.000467393
0.0121302
-0.000412394
0.0122896
-0.000360848
0.0124248
-0.000315273
0.0125396
-0.000276184
0.0126376
-0.000243205
0.0127218
-0.000215612
0.0127948
-0.000192537
0.0128586
-0.000173198
0.0129149
-0.000156881
0.0129649
-0.000142959
0.0130096
-0.00013092
0.0130498
-0.000120371
0.0130861
-0.000111019
0.013119
-0.000102645
0.013149
-9.50873e-05
0.0131764
-8.8222e-05
0.0132014
-8.19552e-05
0.0132243
-7.62132e-05
0.0132454
-7.09371e-05
0.0132648
-6.60783e-05
0.0132827
-6.15958e-05
0.0132992
-5.74544e-05
0.0133144
-5.36233e-05
0.0133286
-5.00751e-05
0.0133417
-4.67854e-05
0.0133538
-4.37324e-05
0.0133651
-4.08965e-05
0.0133756
-3.826e-05
0.0133854
-3.58069e-05
0.0133945
-3.35226e-05
0.0134029
-3.1394e-05
0.0134109
-2.94091e-05
0.0134183
-2.75572e-05
0.0134252
-2.58282e-05
0.0134316
-2.42132e-05
0.0134377
-2.27039e-05
0.0134433
-2.12927e-05
0.0134486
-1.99726e-05
0.0134536
-1.87373e-05
0.0134582
-1.7581e-05
0.0134626
-1.6498e-05
0.0134666
-1.54835e-05
0.0134705
-1.45326e-05
0.0134741
-1.36411e-05
0.0134774
-1.28048e-05
0.0134806
-1.20198e-05
0.0134835
-1.12824e-05
0.0134863
-1.05892e-05
0.0134889
-9.93671e-06
0.0134913
-9.32167e-06
0.0134936
-8.7409e-06
0.0134958
-8.19131e-06
0.0134978
-7.66992e-06
0.0134996
-7.17386e-06
0.0135014
-6.70042e-06
0.013503
-6.24706e-06
0.0135045
-5.81152e-06
0.0135059
-5.39184e-06
0.0135071
-4.9864e-06
0.0135083
-4.59402e-06
0.0135094
-4.21393e-06
0.0135103
-3.84585e-06
0.0135112
-3.48994e-06
0.013512
-3.14677e-06
0.0135126
-2.81728e-06
0.0135132
-2.50269e-06
0.0135137
-2.20438e-06
0.0135142
-1.92381e-06
0.0135145
-1.66235e-06
0.0135149
-1.42122e-06
0.0135151
-1.20137e-06
0.0135153
-1.00337e-06
0.0135155
-8.27382e-07
0.0135156
-6.73142e-07
0.0135157
-5.39949e-07
0.0135158
-4.26708e-07
0.0135158
-3.31986e-07
0.0135158
-2.54088e-07
0.0135159
-1.91149e-07
0.0135159
-1.41224e-07
0.0135159
-1.02373e-07
0.0135159
-7.27358e-08
0.0135159
-5.05923e-08
0.0135159
-3.44024e-08
0.0135159
-2.28296e-08
0.0135159
-1.47527e-08
0.0135159
-9.25966e-09
0.0135159
-5.62578e-09
0.0135159
-3.29162e-09
0.0135159
-1.84117e-09
0.0135159
-9.74637e-10
0.0135159
-4.8092e-10
0.0135159
-2.1306e-10
0.0135159
-7.68502e-11
0.0135159
-1.64282e-11
0.0135159
5.53174e-12
0.0135159
9.68655e-12
0.0135159
7.93983e-12
0.0135159
5.7129e-12
0.0135159
5.73258e-12
0.0135159
4.71302e-12
0.0135159
1.89735e-12
0.0135159
8.85326e-13
0.0135159
3.16768e-12
0.0135159
4.18117e-12
0.0135159
4.90898e-12
0.0135159
6.93224e-12
0.0135159
7.74664e-12
0.0135159
6.94249e-12
0.0135159
5.32334e-12
0.0135159
4.3341e-12
0.0135159
4.06965e-12
0.0135159
1.78165e-12
0.0135159
-3.53652e-13
0.0135159
-1.77213e-12
0.0135159
-3.33128e-12
0.0135159
-4.70364e-12
0.0135159
-4.34773e-12
0.0135159
-4.24198e-12
0.0135159
-2.47861e-12
0.0135159
-6.5854e-13
0.0135159
-2.58679e-12
0.0135159
-3.8466e-12
0.0135159
-3.3187e-13
0.0135159
-2.009e-13
0.0135159
-1.49762e-12
0.0135159
1.44045e-12
0.0135159
1.17275e-12
0.0135159
-3.24805e-13
0.0135159
2.16156e-12
0.0135159
9.2493e-13
0.0135159
-4.01406e-12
0.0135159
-3.62702e-12
0.0135159
-2.77052e-13
0.0135159
-2.59728e-12
0.0135159
-5.6243e-12
0.0135159
-4.26962e-12
0.0135159
-1.05343e-11
0.0135159
-1.92324e-11
0.0135159
-2.67029e-11
0.0135159
-2.66296e-11
-4.52368e-11
0.0101711
-0.000326946
0.0104732
-0.000717559
0.0107747
-0.000847477
0.0110406
-0.000850383
0.0112685
-0.000810501
0.0114512
-0.000742277
0.0115865
-0.000654645
0.0116798
-0.000560625
0.0117389
-0.000471526
0.0117714
-0.000393394
0.011784
-0.000327847
0.0117821
-0.000274298
0.0117703
-0.000231338
0.0117519
-0.000197301
0.0117296
-0.000170143
0.0117048
-0.00014849
0.0116791
-0.000131101
0.011653
-0.000116939
0.0116273
-0.000105206
0.0116023
-9.53146e-05
0.0115781
-8.68355e-05
0.0115549
-7.94598e-05
0.0115328
-7.29644e-05
0.0115118
-6.71866e-05
0.0114918
-6.20065e-05
0.0114729
-5.73335e-05
0.0114551
-5.30979e-05
0.0114382
-4.92443e-05
0.0114224
-4.57272e-05
0.0114074
-4.25091e-05
0.0113934
-3.95577e-05
0.0113801
-3.68454e-05
0.0113677
-3.43482e-05
0.011356
-3.20451e-05
0.011345
-2.99175e-05
0.0113347
-2.79491e-05
0.011325
-2.61255e-05
0.011316
-2.44339e-05
0.0113074
-2.28627e-05
0.0112994
-2.14018e-05
0.0112919
-2.00422e-05
0.0112848
-1.87755e-05
0.0112782
-1.75945e-05
0.011272
-1.64925e-05
0.0112662
-1.54636e-05
0.0112607
-1.45022e-05
0.0112556
-1.36033e-05
0.0112508
-1.27626e-05
0.0112462
-1.19757e-05
0.011242
-1.1239e-05
0.011238
-1.05488e-05
0.0112343
-9.9018e-06
0.0112308
-9.29502e-06
0.0112275
-8.7255e-06
0.0112244
-8.1905e-06
0.0112215
-7.68738e-06
0.0112188
-7.21359e-06
0.0112162
-6.76667e-06
0.0112138
-6.3442e-06
0.0112116
-5.94387e-06
0.0112095
-5.56341e-06
0.0112075
-5.20066e-06
0.0112056
-4.85362e-06
0.0112039
-4.52044e-06
0.0112023
-4.19949e-06
0.0112008
-3.88944e-06
0.0111994
-3.58925e-06
0.0111981
-3.29823e-06
0.0111969
-3.01606e-06
0.0111958
-2.74276e-06
0.0111948
-2.47873e-06
0.0111939
-2.22464e-06
0.011193
-1.9814e-06
0.0111923
-1.75011e-06
0.0111916
-1.5319e-06
0.011191
-1.32791e-06
0.0111905
-1.13914e-06
0.01119
-9.66401e-07
0.0111896
-8.10252e-07
0.0111893
-6.70918e-07
0.011189
-5.48288e-07
0.0111888
-4.41917e-07
0.0111886
-3.51048e-07
0.0111885
-2.74654e-07
0.0111883
-2.11485e-07
0.0111882
-1.60145e-07
0.0111882
-1.19161e-07
0.0111881
-8.70485e-08
0.0111881
-6.237e-08
0.011188
-4.37816e-08
0.011188
-3.00708e-08
0.011188
-2.01772e-08
0.011188
-1.32015e-08
0.011188
-8.40252e-09
0.011188
-5.18623e-09
0.011188
-3.09116e-09
0.011188
-1.76918e-09
0.011188
-9.63812e-10
0.011188
-4.92235e-10
0.011188
-2.2977e-10
0.011188
-9.26348e-11
0.011188
-2.73159e-11
0.011188
-5.69089e-13
0.011188
4.96398e-12
0.011188
6.0953e-12
0.011188
5.19554e-12
0.011188
5.2924e-12
0.011188
4.96931e-12
0.011188
4.41567e-12
0.011188
2.83203e-12
0.011188
1.6018e-12
0.011188
1.74819e-12
0.011188
2.66458e-12
0.011188
3.5493e-12
0.011188
4.57713e-12
0.011188
5.57921e-12
0.011188
5.69954e-12
0.011188
5.57449e-12
0.011188
4.08003e-12
0.011188
1.04436e-12
0.011188
-7.69063e-13
0.011188
9.36014e-13
0.011188
-3.48029e-15
0.011188
-3.51513e-12
0.011188
-3.61287e-12
0.011188
-3.18691e-12
0.011188
-4.1876e-12
0.011188
-3.3878e-12
0.011188
-1.28773e-12
0.011188
-1.22816e-12
0.011188
-1.42481e-12
0.011188
4.87747e-13
0.011188
3.48786e-13
0.011188
-5.78762e-13
0.011188
1.39109e-12
0.011188
1.80426e-12
0.011188
-5.15464e-13
0.011188
-3.43018e-13
0.011188
-4.23252e-13
0.011188
-9.45379e-13
0.011188
-2.00019e-13
0.011188
-2.13019e-12
0.011188
-4.36247e-12
0.011188
-2.16094e-12
0.011188
-9.66878e-12
0.011188
-7.34475e-12
0.011188
-5.5143e-12
0.011188
-1.89762e-11
0.011188
-2.62382e-11
-3.87277e-11
0.0102853
-0.000612233
0.010502
-0.000934222
0.010561
-0.000906489
0.0105323
-0.000821727
0.0104404
-0.000718563
0.0102934
-0.000595323
0.0101153
-0.000476506
0.00992525
-0.000370605
0.00973609
-0.00028236
0.00955532
-0.000212629
0.00938717
-0.000159696
0.00923369
-0.000120812
0.00909533
-9.29808e-05
0.00897142
-7.33914e-05
0.00886095
-5.96744e-05
0.0087625
-5.00354e-05
0.00867456
-4.31619e-05
0.00859574
-3.81188e-05
0.0085248
-3.4266e-05
0.00846067
-3.1185e-05
0.00840244
-2.86125e-05
0.00834937
-2.63873e-05
0.00830082
-2.44122e-05
0.00825626
-2.26289e-05
0.00821526
-2.10022e-05
0.00817743
-1.95098e-05
0.00814247
-1.81367e-05
0.0081101
-1.68716e-05
0.00808008
-1.57055e-05
0.0080522
-1.463e-05
0.00802628
-1.36376e-05
0.00800216
-1.27214e-05
0.00797968
-1.18747e-05
0.00795873
-1.10917e-05
0.00793918
-1.03666e-05
0.00792092
-9.69446e-06
0.00790387
-9.07074e-06
0.00788793
-8.49125e-06
0.00787302
-7.9523e-06
0.00785906
-7.45052e-06
0.007846
-6.9829e-06
0.00783378
-6.54673e-06
0.00782232
-6.13957e-06
0.00781159
-5.75922e-06
0.00780153
-5.40367e-06
0.0077921
-5.0711e-06
0.00778325
-4.75987e-06
0.00777496
-4.46847e-06
0.00776718
-4.1955e-06
0.00775988
-3.93968e-06
0.00775303
-3.69985e-06
0.0077466
-3.47489e-06
0.00774057
-3.26377e-06
0.00773491
-3.06551e-06
0.0077296
-2.87917e-06
0.00772462
-2.70387e-06
0.00771994
-2.53873e-06
0.00771556
-2.38289e-06
0.00771145
-2.23552e-06
0.0077076
-2.09579e-06
0.007704
-1.96292e-06
0.00770064
-1.83615e-06
0.0076975
-1.71475e-06
0.00769458
-1.59807e-06
0.00769186
-1.48554e-06
0.00768935
-1.37668e-06
0.00768703
-1.27114e-06
0.0076849
-1.16868e-06
0.00768295
-1.06919e-06
0.00768118
-9.72715e-07
0.00767959
-8.79401e-07
0.00767815
-7.89514e-07
0.00767687
-7.03398e-07
0.00767574
-6.21459e-07
0.00767476
-5.44121e-07
0.0076739
-4.71799e-07
0.00767317
-4.04865e-07
0.00767254
-3.43612e-07
0.00767202
-2.88238e-07
0.00767159
-2.38819e-07
0.00767124
-1.95303e-07
0.00767095
-1.57515e-07
0.00767072
-1.25208e-07
0.00767055
-9.80341e-08
0.00767041
-7.5556e-08
0.00767031
-5.72794e-08
0.00767023
-4.26803e-08
0.00767018
-3.12302e-08
0.00767014
-2.24199e-08
0.00767011
-1.57747e-08
0.00767009
-1.08648e-08
0.00767008
-7.31314e-09
0.00767007
-4.80204e-09
0.00767006
-3.06915e-09
0.00767006
-1.90374e-09
0.00767006
-1.14101e-09
0.00767006
-6.57584e-10
0.00767006
-3.62519e-10
0.00767006
-1.88611e-10
0.00767006
-8.82783e-11
0.00767006
-3.52686e-11
0.00767006
-1.08301e-11
0.00767006
-1.48423e-12
0.00767006
1.38819e-12
0.00767006
1.82001e-12
0.00767006
2.65996e-12
0.00767006
2.39629e-12
0.00767006
1.45958e-12
0.00767006
1.68257e-12
0.00767006
2.59219e-12
0.00767006
5.41435e-13
0.00767006
-1.17152e-12
0.00767006
7.24083e-13
0.00767006
2.85125e-12
0.00767006
2.55173e-12
0.00767006
1.26482e-12
0.00767006
1.2776e-12
0.00767006
1.85631e-12
0.00767006
1.12631e-12
0.00767006
3.33325e-13
0.00767006
2.36829e-14
0.00767006
-1.12626e-12
0.00767006
-1.22799e-12
0.00767006
-3.28692e-13
0.00767006
-1.80281e-13
0.00767006
-5.65991e-13
0.00767006
-3.56856e-13
0.00767006
-1.7504e-12
0.00767006
-2.99936e-12
0.00767006
-8.71348e-13
0.00767006
1.61609e-12
0.00767006
1.02234e-12
0.00767006
1.75958e-13
0.00767006
-5.89857e-13
0.00767006
-2.17515e-13
0.00767006
1.07402e-12
0.00767006
-4.21601e-13
0.00767006
1.00132e-13
0.00767006
7.23305e-13
0.00767006
-8.53979e-13
0.00767006
-1.56243e-13
0.00767006
-1.69534e-12
0.00767006
-4.30302e-12
0.00767006
-5.17297e-13
0.00767006
3.79554e-13
0.00767006
-2.64736e-12
0.00767006
-1.01263e-11
0.00767006
-9.09474e-12
0.00767006
-8.24306e-12
-1.43869e-11
0.00938777
0.00845354
0.00754706
0.00672533
0.00600677
0.00541144
0.00493494
0.00456433
0.00428197
0.00406934
0.00390965
0.00378883
0.00369585
0.00362246
0.00356279
0.00351275
0.00346959
0.00343147
0.00339721
0.00336602
0.00333741
0.00331102
0.00328661
0.00326398
0.00324298
0.00322347
0.00320533
0.00318846
0.00317275
0.00315812
0.00314449
0.00313177
0.00311989
0.0031088
0.00309843
0.00308874
0.00307967
0.00307118
0.00306322
0.00305577
0.00304879
0.00304224
0.0030361
0.00303034
0.00302494
0.00301987
0.00301511
0.00301064
0.00300645
0.00300251
0.00299881
0.00299533
0.00299207
0.002989
0.00298612
0.00298342
0.00298088
0.0029785
0.00297626
0.00297417
0.0029722
0.00297037
0.00296865
0.00296705
0.00296557
0.00296419
0.00296292
0.00296175
0.00296068
0.00295971
0.00295883
0.00295804
0.00295734
0.00295672
0.00295617
0.0029557
0.0029553
0.00295495
0.00295466
0.00295443
0.00295423
0.00295407
0.00295395
0.00295385
0.00295377
0.00295372
0.00295367
0.00295364
0.00295362
0.0029536
0.00295359
0.00295359
0.00295358
0.00295358
0.00295358
0.00295358
0.00295357
0.00295357
0.00295357
0.00295357
0.00295357
0.00295357
0.00295357
0.00295357
0.00295357
0.00295357
0.00295357
0.00295357
0.00295357
0.00295357
0.00295357
0.00295357
0.00295357
0.00295357
0.00295357
0.00295357
0.00295357
0.00295357
0.00295357
0.00295357
0.00295357
0.00295357
0.00295357
0.00295357
0.00295357
0.00295357
0.00295357
0.00295357
0.00295357
0.00295357
0.00295357
0.00295357
0.00295357
0.00295357
0.00295357
0.00295357
0.00295357
0.00295357
0.00295357
0.00295357
0.00295357
0.00295357
0.00295357
0.00295357
0.00295357
0.00295357
0.00295357
0.00295357
0.00295357
0.0100654
-6.53948e-05
0.0102509
-0.000185527
0.0105092
-0.000258238
0.0107948
-0.000285639
0.011085
-0.000290163
0.011369
-0.000284043
0.0116389
-0.000269847
0.0118879
-0.000249016
0.0121128
-0.000224953
0.0123143
-0.000201452
0.0124944
-0.000180118
0.0126558
-0.000161392
0.012801
-0.000145217
0.0129324
-0.000131362
0.0130519
-0.000119524
0.0131613
-0.00010938
0.0132619
-0.000100623
0.0133549
-9.29815e-05
0.0134411
-8.62254e-05
0.0135213
-8.01763e-05
0.013596
-7.47013e-05
0.0136657
-6.97025e-05
0.0137308
-6.51077e-05
0.0137916
-6.08629e-05
0.0138486
-5.6927e-05
0.0139018
-5.32681e-05
0.0139517
-4.98608e-05
0.0139984
-4.66841e-05
0.0140421
-4.37199e-05
0.0140831
-4.09524e-05
0.0141214
-3.83675e-05
0.0141574
-3.59522e-05
0.0141911
-3.36947e-05
0.0142227
-3.15841e-05
0.0142523
-2.96104e-05
0.01428
-2.77641e-05
0.0143061
-2.60366e-05
0.0143305
-2.44198e-05
0.0143534
-2.29064e-05
0.0143749
-2.14893e-05
0.014395
-2.01621e-05
0.014414
-1.89189e-05
0.0144317
-1.77542e-05
0.0144484
-1.66627e-05
0.014464
-1.56396e-05
0.0144787
-1.46806e-05
0.0144925
-1.37814e-05
0.0145054
-1.29382e-05
0.0145176
-1.21473e-05
0.014529
-1.14053e-05
0.0145397
-1.0709e-05
0.0145497
-1.00556e-05
0.0145592
-9.442e-06
0.014568
-8.86566e-06
0.0145764
-8.32399e-06
0.0145842
-7.81453e-06
0.0145915
-7.33491e-06
0.0145984
-6.88285e-06
0.0146049
-6.45612e-06
0.0146109
-6.05255e-06
0.0146166
-5.67003e-06
0.0146219
-5.30656e-06
0.0146268
-4.96019e-06
0.0146315
-4.62912e-06
0.0146358
-4.31168e-06
0.0146398
-4.00641e-06
0.0146435
-3.71205e-06
0.0146469
-3.42763e-06
0.0146501
-3.15244e-06
0.014653
-2.8861e-06
0.0146556
-2.62851e-06
0.014658
-2.3799e-06
0.0146601
-2.14074e-06
0.014662
-1.91174e-06
0.0146637
-1.69375e-06
0.0146652
-1.48773e-06
0.0146665
-1.29464e-06
0.0146676
-1.11537e-06
0.0146686
-9.50671e-07
0.0146694
-8.01087e-07
0.01467
-6.66904e-07
0.0146706
-5.48121e-07
0.014671
-4.44442e-07
0.0146714
-3.55284e-07
0.0146717
-2.79799e-07
0.0146719
-2.16926e-07
0.0146721
-1.65442e-07
0.0146722
-1.24024e-07
0.0146723
-9.13124e-08
0.0146723
-6.59667e-08
0.0146724
-4.6715e-08
0.0146724
-3.23892e-08
0.0146724
-2.19553e-08
0.0146724
-1.45276e-08
0.0146725
-9.36704e-09
0.0146725
-5.87086e-09
0.0146725
-3.56407e-09
0.0146725
-2.08689e-09
0.0146725
-1.17312e-09
0.0146725
-6.28256e-10
0.0146725
-3.14145e-10
0.0146725
-1.42456e-10
0.0146725
-5.6803e-11
0.0146725
-1.91519e-11
0.0146725
-4.96013e-12
0.0146725
-1.66396e-13
0.0146725
5.39458e-13
0.0146725
1.39444e-12
0.0146725
2.77642e-12
0.0146725
1.9031e-12
0.0146725
-8.03758e-14
0.0146725
-9.35073e-13
0.0146725
-7.82302e-13
0.0146725
-8.79381e-13
0.0146725
-1.8603e-12
0.0146725
-3.61523e-13
0.0146725
3.25206e-12
0.0146725
4.59656e-12
0.0146725
2.96007e-12
0.0146725
4.94971e-13
0.0146725
-1.0036e-12
0.0146725
3.23373e-13
0.0146725
1.93492e-12
0.0146725
4.23522e-13
0.0146725
-9.73136e-13
0.0146725
-9.33694e-13
0.0146725
-2.02139e-12
0.0146725
-3.99059e-12
0.0146725
-2.62782e-12
0.0146725
-4.90259e-13
0.0146725
-1.6719e-13
0.0146725
-2.50975e-13
0.0146725
-1.8158e-12
0.0146725
-2.35083e-13
0.0146725
3.76017e-12
0.0146725
2.94212e-12
0.0146725
8.9675e-13
0.0146725
3.81977e-13
0.0146725
1.78578e-12
0.0146725
3.17949e-12
0.0146725
2.77745e-12
0.0146725
2.56636e-13
0.0146725
-4.2557e-13
0.0146725
7.71791e-13
0.0146725
-1.36173e-12
0.0146725
-2.55838e-12
0.0146725
-5.49135e-12
0.0146725
-1.45519e-11
0.0146725
-1.76654e-11
-3.04532e-11
0.0100904
-0.000155813
0.0103203
-0.000415448
0.0106081
-0.000546036
0.010907
-0.000584492
0.0111994
-0.000582543
0.0114749
-0.000559576
0.0117244
-0.000519352
0.0119428
-0.000467393
0.0121302
-0.000412394
0.0122896
-0.000360848
0.0124248
-0.000315273
0.0125396
-0.000276184
0.0126376
-0.000243205
0.0127218
-0.000215612
0.0127948
-0.000192537
0.0128586
-0.000173198
0.0129149
-0.000156881
0.0129649
-0.000142959
0.0130096
-0.00013092
0.0130498
-0.000120371
0.0130861
-0.000111019
0.013119
-0.000102645
0.013149
-9.50873e-05
0.0131764
-8.8222e-05
0.0132014
-8.19552e-05
0.0132243
-7.62132e-05
0.0132454
-7.09371e-05
0.0132648
-6.60783e-05
0.0132827
-6.15958e-05
0.0132992
-5.74544e-05
0.0133144
-5.36233e-05
0.0133286
-5.00751e-05
0.0133417
-4.67854e-05
0.0133538
-4.37324e-05
0.0133651
-4.08965e-05
0.0133756
-3.826e-05
0.0133854
-3.58069e-05
0.0133945
-3.35226e-05
0.0134029
-3.1394e-05
0.0134109
-2.94091e-05
0.0134183
-2.75572e-05
0.0134252
-2.58282e-05
0.0134316
-2.42132e-05
0.0134377
-2.27039e-05
0.0134433
-2.12927e-05
0.0134486
-1.99726e-05
0.0134536
-1.87373e-05
0.0134582
-1.7581e-05
0.0134626
-1.6498e-05
0.0134666
-1.54835e-05
0.0134705
-1.45326e-05
0.0134741
-1.36411e-05
0.0134774
-1.28048e-05
0.0134806
-1.20198e-05
0.0134835
-1.12824e-05
0.0134863
-1.05892e-05
0.0134889
-9.9367e-06
0.0134913
-9.32166e-06
0.0134936
-8.74089e-06
0.0134958
-8.19131e-06
0.0134978
-7.66992e-06
0.0134996
-7.17386e-06
0.0135014
-6.70041e-06
0.013503
-6.24706e-06
0.0135045
-5.81152e-06
0.0135059
-5.39184e-06
0.0135071
-4.9864e-06
0.0135083
-4.59402e-06
0.0135094
-4.21393e-06
0.0135103
-3.84585e-06
0.0135112
-3.48993e-06
0.013512
-3.14677e-06
0.0135126
-2.81728e-06
0.0135132
-2.50269e-06
0.0135137
-2.20439e-06
0.0135142
-1.92381e-06
0.0135145
-1.66235e-06
0.0135149
-1.42123e-06
0.0135151
-1.20137e-06
0.0135153
-1.00337e-06
0.0135155
-8.27385e-07
0.0135156
-6.73146e-07
0.0135157
-5.39953e-07
0.0135158
-4.26711e-07
0.0135158
-3.31987e-07
0.0135158
-2.54089e-07
0.0135159
-1.91153e-07
0.0135159
-1.41229e-07
0.0135159
-1.02378e-07
0.0135159
-7.2741e-08
0.0135159
-5.05983e-08
0.0135159
-3.44058e-08
0.0135159
-2.28288e-08
0.0135159
-1.47499e-08
0.0135159
-9.25643e-09
0.0135159
-5.62129e-09
0.0135159
-3.28617e-09
0.0135159
-1.83722e-09
0.0135159
-9.72754e-10
0.0135159
-4.78234e-10
0.0135159
-2.08855e-10
0.0135159
-7.28487e-11
0.0135159
-1.45e-11
0.0135159
6.55977e-12
0.0135159
1.0332e-11
0.0135159
9.00656e-12
0.0135159
6.63764e-12
0.0135159
4.73937e-12
0.0135159
2.35675e-12
0.0135159
2.51503e-13
0.0135159
-6.05354e-13
0.0135159
-7.54745e-13
0.0135159
-2.39739e-13
0.0135159
2.05108e-12
0.0135159
4.37002e-12
0.0135159
3.56454e-12
0.0135159
2.3186e-12
0.0135159
2.81127e-12
0.0135159
3.90242e-12
0.0135159
1.96836e-12
0.0135159
-3.7417e-13
0.0135159
9.66078e-13
0.0135159
1.31828e-12
0.0135159
-1.88165e-12
0.0135159
-3.18084e-12
0.0135159
-1.75577e-12
0.0135159
-1.57259e-12
0.0135159
-2.52001e-12
0.0135159
-2.44007e-12
0.0135159
-1.67715e-12
0.0135159
-1.76467e-12
0.0135159
-1.07053e-12
0.0135159
1.37696e-13
0.0135159
9.7141e-13
0.0135159
1.08039e-12
0.0135159
1.66755e-13
0.0135159
1.28028e-12
0.0135159
4.81252e-12
0.0135159
4.07214e-12
0.0135159
5.17648e-13
0.0135159
-8.40611e-13
0.0135159
-1.71024e-13
0.0135159
1.55555e-13
0.0135159
6.69001e-13
0.0135159
-4.34247e-12
0.0135159
-8.37561e-12
0.0135159
-1.27951e-11
0.0135159
-2.19047e-11
0.0135159
-2.77414e-11
-4.31241e-11
0.0101711
-0.000326946
0.0104732
-0.000717559
0.0107747
-0.000847477
0.0110406
-0.000850383
0.0112685
-0.000810501
0.0114512
-0.000742277
0.0115865
-0.000654645
0.0116798
-0.000560625
0.0117389
-0.000471526
0.0117714
-0.000393394
0.011784
-0.000327847
0.0117821
-0.000274298
0.0117703
-0.000231338
0.0117519
-0.000197301
0.0117296
-0.000170143
0.0117048
-0.00014849
0.0116791
-0.000131101
0.011653
-0.000116939
0.0116273
-0.000105206
0.0116023
-9.53146e-05
0.0115781
-8.68355e-05
0.0115549
-7.94598e-05
0.0115328
-7.29644e-05
0.0115118
-6.71866e-05
0.0114918
-6.20065e-05
0.0114729
-5.73335e-05
0.0114551
-5.30979e-05
0.0114382
-4.92443e-05
0.0114224
-4.57272e-05
0.0114074
-4.25091e-05
0.0113934
-3.95577e-05
0.0113801
-3.68454e-05
0.0113677
-3.43482e-05
0.011356
-3.20451e-05
0.011345
-2.99175e-05
0.0113347
-2.79491e-05
0.011325
-2.61255e-05
0.011316
-2.44339e-05
0.0113074
-2.28627e-05
0.0112994
-2.14018e-05
0.0112919
-2.00422e-05
0.0112848
-1.87755e-05
0.0112782
-1.75945e-05
0.011272
-1.64925e-05
0.0112662
-1.54636e-05
0.0112607
-1.45022e-05
0.0112556
-1.36033e-05
0.0112508
-1.27626e-05
0.0112462
-1.19757e-05
0.011242
-1.1239e-05
0.011238
-1.05488e-05
0.0112343
-9.90181e-06
0.0112308
-9.29502e-06
0.0112275
-8.7255e-06
0.0112244
-8.1905e-06
0.0112215
-7.68738e-06
0.0112188
-7.21359e-06
0.0112162
-6.76666e-06
0.0112138
-6.3442e-06
0.0112116
-5.94387e-06
0.0112095
-5.5634e-06
0.0112075
-5.20066e-06
0.0112056
-4.85362e-06
0.0112039
-4.52044e-06
0.0112023
-4.19949e-06
0.0112008
-3.88944e-06
0.0111994
-3.58925e-06
0.0111981
-3.29823e-06
0.0111969
-3.01606e-06
0.0111958
-2.74276e-06
0.0111948
-2.47873e-06
0.0111939
-2.22464e-06
0.011193
-1.9814e-06
0.0111923
-1.75011e-06
0.0111916
-1.5319e-06
0.011191
-1.32791e-06
0.0111905
-1.13914e-06
0.01119
-9.66403e-07
0.0111896
-8.10253e-07
0.0111893
-6.70917e-07
0.011189
-5.48288e-07
0.0111888
-4.41918e-07
0.0111886
-3.51051e-07
0.0111885
-2.74656e-07
0.0111883
-2.11486e-07
0.0111882
-1.60146e-07
0.0111882
-1.19163e-07
0.0111881
-8.70523e-08
0.0111881
-6.23741e-08
0.011188
-4.37853e-08
0.011188
-3.00737e-08
0.011188
-2.01793e-08
0.011188
-1.32023e-08
0.011188
-8.40222e-09
0.011188
-5.18628e-09
0.011188
-3.09162e-09
0.011188
-1.76855e-09
0.011188
-9.61926e-10
0.011188
-4.9092e-10
0.011188
-2.28717e-10
0.011188
-9.10989e-11
0.011188
-2.55818e-11
0.011188
1.0156e-12
0.011188
7.47411e-12
0.011188
8.02133e-12
0.011188
7.6273e-12
0.011188
7.40648e-12
0.011188
5.094e-12
0.011188
1.00935e-12
0.011188
-1.56311e-12
0.011188
-1.47402e-12
0.011188
-1.53643e-13
0.011188
1.49905e-12
0.011188
2.28546e-12
0.011188
2.94047e-12
0.011188
3.0449e-12
0.011188
3.31289e-12
0.011188
2.54801e-12
0.011188
1.17465e-12
0.011188
1.6408e-12
0.011188
2.63685e-12
0.011188
2.03845e-12
0.011188
-7.81823e-13
0.011188
-2.25698e-12
0.011188
-2.33302e-12
0.011188
-3.07961e-12
0.011188
-2.19461e-12
0.011188
-4.38105e-14
0.011188
-5.17712e-13
0.011188
-8.76764e-13
0.011188
-2.81835e-13
0.011188
-2.09227e-12
0.011188
-1.63524e-12
0.011188
6.00226e-13
0.011188
-4.13368e-13
0.011188
1.14171e-12
0.011188
3.35735e-12
0.011188
3.2254e-12
0.011188
1.06258e-12
0.011188
1.13585e-12
0.011188
-1.13876e-12
0.011188
-7.35191e-13
0.011188
-2.16232e-12
0.011188
-2.39625e-12
0.011188
-3.22459e-12
0.011188
-3.97371e-12
0.011188
-1.17558e-11
0.011188
-1.84053e-11
0.011188
-2.04331e-11
-3.53214e-11
0.0102853
-0.000612233
0.010502
-0.000934222
0.010561
-0.000906489
0.0105323
-0.000821727
0.0104404
-0.000718563
0.0102934
-0.000595323
0.0101153
-0.000476506
0.00992525
-0.000370605
0.00973609
-0.00028236
0.00955532
-0.000212629
0.00938717
-0.000159696
0.00923369
-0.000120812
0.00909533
-9.29808e-05
0.00897142
-7.33914e-05
0.00886095
-5.96744e-05
0.0087625
-5.00354e-05
0.00867456
-4.31619e-05
0.00859574
-3.81188e-05
0.0085248
-3.4266e-05
0.00846067
-3.1185e-05
0.00840244
-2.86125e-05
0.00834937
-2.63873e-05
0.00830082
-2.44122e-05
0.00825626
-2.26289e-05
0.00821526
-2.10022e-05
0.00817743
-1.95098e-05
0.00814247
-1.81367e-05
0.0081101
-1.68716e-05
0.00808008
-1.57055e-05
0.0080522
-1.463e-05
0.00802628
-1.36376e-05
0.00800216
-1.27214e-05
0.00797968
-1.18747e-05
0.00795873
-1.10917e-05
0.00793918
-1.03666e-05
0.00792092
-9.69446e-06
0.00790387
-9.07074e-06
0.00788793
-8.49125e-06
0.00787302
-7.9523e-06
0.00785906
-7.45052e-06
0.007846
-6.9829e-06
0.00783378
-6.54673e-06
0.00782232
-6.13957e-06
0.00781159
-5.75922e-06
0.00780153
-5.40367e-06
0.0077921
-5.0711e-06
0.00778325
-4.75987e-06
0.00777496
-4.46847e-06
0.00776718
-4.1955e-06
0.00775988
-3.93969e-06
0.00775303
-3.69985e-06
0.0077466
-3.47489e-06
0.00774057
-3.26377e-06
0.00773491
-3.06551e-06
0.0077296
-2.87918e-06
0.00772462
-2.70387e-06
0.00771994
-2.53873e-06
0.00771556
-2.38289e-06
0.00771145
-2.23552e-06
0.0077076
-2.09579e-06
0.007704
-1.96292e-06
0.00770064
-1.83615e-06
0.0076975
-1.71475e-06
0.00769458
-1.59807e-06
0.00769186
-1.48554e-06
0.00768935
-1.37668e-06
0.00768703
-1.27114e-06
0.0076849
-1.16867e-06
0.00768295
-1.06919e-06
0.00768118
-9.72713e-07
0.00767959
-8.79401e-07
0.00767815
-7.89513e-07
0.00767687
-7.03398e-07
0.00767574
-6.21458e-07
0.00767476
-5.4412e-07
0.0076739
-4.71799e-07
0.00767317
-4.04863e-07
0.00767254
-3.43612e-07
0.00767202
-2.88238e-07
0.00767159
-2.3882e-07
0.00767124
-1.95305e-07
0.00767095
-1.57516e-07
0.00767072
-1.25207e-07
0.00767055
-9.80343e-08
0.00767041
-7.55577e-08
0.00767031
-5.72817e-08
0.00767023
-4.2682e-08
0.00767018