/*--------------------------------*- C++ -*----------------------------------*\
  =========                 |
  \\      /  F ield         | OpenFOAM: The Open Source CFD Toolbox
   \\    /   O peration     | Website:  https://openfoam.org
    \\  /    A nd           | Version:  7
     \\/     M anipulation  |
\*---------------------------------------------------------------------------*/
FoamFile
{
    version     2.0;
    format      ascii;
    class       volVectorField;
    location    "7.5";
    object      U;
}
// * * * * * * * * * * * * * * * * * * * * * * * * * * * * * * * * * * * * * //

dimensions      [0 1 -1 0 0 0 0];

internalField   nonuniform List<vector> 
1500
(
(1.00046 -0.00322028 0)
(1.01239 -0.00877588 0)
(1.03419 -0.0123004 0)
(1.06242 -0.0138676 0)
(1.09278 -0.0142764 0)
(1.12254 -0.0140884 0)
(1.15063 -0.0135033 0)
(1.17669 -0.012618 0)
(1.20052 -0.0115724 0)
(1.22197 -0.0105039 0)
(1.2411 -0.00950146 0)
(1.25815 -0.00860423 0)
(1.2734 -0.00782026 0)
(1.28714 -0.00714313 0)
(1.2996 -0.00655967 0)
(1.31098 -0.00605508 0)
(1.32143 -0.00561531 0)
(1.33107 -0.00522782 0)
(1.34 -0.00488204 0)
(1.34829 -0.00456952 0)
(1.35602 -0.00428389 0)
(1.36322 -0.00402048 0)
(1.36995 -0.00377586 0)
(1.37624 -0.00354757 0)
(1.38212 -0.00333376 0)
(1.38762 -0.00313308 0)
(1.39277 -0.00294447 0)
(1.39759 -0.00276709 0)
(1.4021 -0.00260021 0)
(1.40633 -0.00244322 0)
(1.41029 -0.00229555 0)
(1.414 -0.00215666 0)
(1.41748 -0.00202606 0)
(1.42074 -0.00190327 0)
(1.4238 -0.00178787 0)
(1.42666 -0.0016794 0)
(1.42935 -0.00157749 0)
(1.43187 -0.00148173 0)
(1.43423 -0.00139177 0)
(1.43645 -0.00130727 0)
(1.43853 -0.00122789 0)
(1.44048 -0.00115334 0)
(1.44231 -0.00108331 0)
(1.44403 -0.00101754 0)
(1.44565 -0.000955776 0)
(1.44716 -0.000897766 0)
(1.44858 -0.000843285 0)
(1.44992 -0.000792118 0)
(1.45117 -0.000744061 0)
(1.45235 -0.000698923 0)
(1.45345 -0.000656522 0)
(1.45449 -0.000616688 0)
(1.45546 -0.000579257 0)
(1.45638 -0.000544074 0)
(1.45723 -0.00051099 0)
(1.45804 -0.000479862 0)
(1.4588 -0.000450553 0)
(1.45951 -0.000422928 0)
(1.46017 -0.000396857 0)
(1.4608 -0.000372211 0)
(1.46138 -0.000348868 0)
(1.46193 -0.000326706 0)
(1.46245 -0.00030561 0)
(1.46292 -0.000285471 0)
(1.46337 -0.000266188 0)
(1.46379 -0.000247668 0)
(1.46417 -0.000229833 0)
(1.46453 -0.000212616 0)
(1.46486 -0.000195969 0)
(1.46516 -0.000179861 0)
(1.46544 -0.000164276 0)
(1.46569 -0.00014922 0)
(1.46591 -0.000134713 0)
(1.46611 -0.00012079 0)
(1.46629 -0.000107497 0)
(1.46645 -9.48871e-05 0)
(1.46659 -8.30172e-05 0)
(1.46671 -7.19418e-05 0)
(1.46681 -6.17091e-05 0)
(1.4669 -5.23573e-05 0)
(1.46697 -4.39107e-05 0)
(1.46703 -3.63775e-05 0)
(1.46708 -2.97489e-05 0)
(1.46712 -2.39988e-05 0)
(1.46716 -1.9085e-05 0)
(1.46718 -1.49514e-05 0)
(1.4672 -1.15307e-05 0)
(1.46721 -8.74791e-06 0)
(1.46722 -6.52391e-06 0)
(1.46723 -4.77885e-06 0)
(1.46724 -3.43551e-06 0)
(1.46724 -2.42149e-06 0)
(1.46724 -1.6715e-06 0)
(1.46724 -1.12866e-06 0)
(1.46725 -7.44611e-07 0)
(1.46725 -4.79178e-07 0)
(1.46725 -3.00096e-07 0)
(1.46725 -1.82452e-07 0)
(1.46725 -1.07452e-07 0)
(1.46725 -6.10708e-08 0)
(1.46725 -3.32401e-08 0)
(1.46725 -1.72026e-08 0)
(1.46725 -8.3917e-09 0)
(1.46725 -3.84492e-09 0)
(1.46725 -1.68445e-09 0)
(1.46725 -6.25491e-10 0)
(1.46725 -1.2445e-10 0)
(1.46725 5.06606e-11 0)
(1.46725 1.44403e-10 0)
(1.46725 2.16711e-10 0)
(1.46725 2.4937e-10 0)
(1.46725 2.07091e-10 0)
(1.46725 1.97216e-10 0)
(1.46725 2.0114e-10 0)
(1.46725 1.70855e-10 0)
(1.46725 2.20795e-10 0)
(1.46725 2.77893e-10 0)
(1.46725 2.81665e-10 0)
(1.46725 2.41397e-10 0)
(1.46725 1.31166e-10 0)
(1.46725 -4.30726e-12 0)
(1.46725 -4.79047e-11 0)
(1.46725 4.01733e-11 0)
(1.46725 3.53369e-11 0)
(1.46725 -1.18346e-10 0)
(1.46725 -1.94486e-10 0)
(1.46725 -1.03474e-10 0)
(1.46725 -2.06031e-10 0)
(1.46725 -2.64971e-10 0)
(1.46725 -1.7487e-11 0)
(1.46725 5.66914e-11 0)
(1.46725 -1.0916e-10 0)
(1.46725 -1.16206e-10 0)
(1.46725 3.03338e-11 0)
(1.46725 -1.29406e-11 0)
(1.46725 -7.72847e-11 0)
(1.46725 -1.65509e-12 0)
(1.46725 -1.46201e-10 0)
(1.46725 -1.80469e-10 0)
(1.46725 -1.98116e-11 0)
(1.46725 -1.21249e-10 0)
(1.46725 -2.19526e-10 0)
(1.46725 -2.58564e-10 0)
(1.46725 -3.52582e-10 0)
(1.46725 -3.93821e-10 0)
(1.46725 -5.00492e-10 0)
(1.46725 -6.35342e-10 0)
(1.46725 -1.02121e-09 0)
(1.46725 -1.24423e-09 0)
(1.46725 -2.08483e-09 0)
(1.00056 -0.0107264 0)
(1.01593 -0.0280185 0)
(1.04218 -0.0380259 0)
(1.07349 -0.0421349 0)
(1.10484 -0.0430351 0)
(1.13403 -0.0421632 0)
(1.16045 -0.0400181 0)
(1.18392 -0.0369852 0)
(1.20434 -0.0335461 0)
(1.22177 -0.0301142 0)
(1.2365 -0.0269357 0)
(1.24891 -0.0241105 0)
(1.25943 -0.0216535 0)
(1.26843 -0.0195424 0)
(1.2762 -0.0177348 0)
(1.28297 -0.0161836 0)
(1.28892 -0.0148436 0)
(1.29418 -0.0136748 0)
(1.29888 -0.0126436 0)
(1.3031 -0.0117234 0)
(1.3069 -0.0108939 0)
(1.31035 -0.0101398 0)
(1.31348 -0.00944974 0)
(1.31634 -0.00881489 0)
(1.31895 -0.00822859 0)
(1.32134 -0.0076856 0)
(1.32354 -0.00718172 0)
(1.32556 -0.00671346 0)
(1.32742 -0.00627787 0)
(1.32913 -0.00587234 0)
(1.33072 -0.00549459 0)
(1.33218 -0.00514251 0)
(1.33354 -0.00481423 0)
(1.3348 -0.00450799 0)
(1.33597 -0.00422222 0)
(1.33706 -0.00395543 0)
(1.33807 -0.00370627 0)
(1.33901 -0.0034735 0)
(1.33989 -0.00325595 0)
(1.34071 -0.00305257 0)
(1.34147 -0.00286236 0)
(1.34219 -0.00268442 0)
(1.34285 -0.00251791 0)
(1.34348 -0.00236205 0)
(1.34406 -0.00221612 0)
(1.34461 -0.00207945 0)
(1.34512 -0.00195142 0)
(1.3456 -0.00183146 0)
(1.34605 -0.00171902 0)
(1.34647 -0.00161362 0)
(1.34686 -0.00151478 0)
(1.34723 -0.00142206 0)
(1.34758 -0.00133506 0)
(1.34791 -0.00125338 0)
(1.34821 -0.00117666 0)
(1.3485 -0.00110453 0)
(1.34877 -0.00103666 0)
(1.34902 -0.000972715 0)
(1.34925 -0.000912377 0)
(1.34947 -0.000855333 0)
(1.34968 -0.000801281 0)
(1.34987 -0.000749928 0)
(1.35005 -0.000700994 0)
(1.35022 -0.000654219 0)
(1.35038 -0.00060936 0)
(1.35052 -0.000566206 0)
(1.35065 -0.000524575 0)
(1.35078 -0.000484326 0)
(1.35089 -0.000445359 0)
(1.35099 -0.000407618 0)
(1.35108 -0.000371095 0)
(1.35116 -0.000335824 0)
(1.35123 -0.000301879 0)
(1.3513 -0.000269365 0)
(1.35135 -0.000238413 0)
(1.3514 -0.000209163 0)
(1.35144 -0.000181759 0)
(1.35147 -0.000156333 0)
(1.3515 -0.000132996 0)
(1.35152 -0.000111827 0)
(1.35154 -9.28669e-05 0)
(1.35155 -7.61156e-05 0)
(1.35157 -6.15277e-05 0)
(1.35157 -4.90159e-05 0)
(1.35158 -3.84548e-05 0)
(1.35158 -2.9688e-05 0)
(1.35159 -2.25364e-05 0)
(1.35159 -1.68072e-05 0)
(1.35159 -1.23032e-05 0)
(1.35159 -8.83137e-06 0)
(1.35159 -6.20926e-06 0)
(1.35159 -4.27072e-06 0)
(1.35159 -2.86901e-06 0)
(1.35159 -1.87887e-06 0)
(1.35159 -1.19676e-06 0)
(1.35159 -7.39259e-07 0)
(1.35159 -4.41015e-07 0)
(1.35159 -2.52594e-07 0)
(1.35159 -1.37848e-07 0)
(1.35159 -7.08528e-08 0)
(1.35159 -3.34476e-08 0)
(1.35159 -1.3689e-08 0)
(1.35159 -4.19627e-09 0)
(1.35159 -4.25178e-10 0)
(1.35159 6.32676e-10 0)
(1.35159 7.45374e-10 0)
(1.35159 6.39101e-10 0)
(1.35159 5.27288e-10 0)
(1.35159 4.31403e-10 0)
(1.35159 3.12375e-10 0)
(1.35159 1.9564e-10 0)
(1.35159 1.93753e-10 0)
(1.35159 2.72054e-10 0)
(1.35159 4.07716e-10 0)
(1.35159 4.85636e-10 0)
(1.35159 4.74145e-10 0)
(1.35159 4.81932e-10 0)
(1.35159 5.2215e-10 0)
(1.35159 4.72692e-10 0)
(1.35159 3.32086e-10 0)
(1.35159 1.23158e-10 0)
(1.35159 -3.20664e-11 0)
(1.35159 -1.0067e-10 0)
(1.35159 -1.23562e-10 0)
(1.35159 -3.14556e-10 0)
(1.35159 -4.11374e-10 0)
(1.35159 -3.13129e-10 0)
(1.35159 -2.80198e-10 0)
(1.35159 -2.44812e-10 0)
(1.35159 -1.76871e-10 0)
(1.35159 -1.87371e-10 0)
(1.35159 -7.85789e-11 0)
(1.35159 -7.63691e-11 0)
(1.35159 -1.1036e-10 0)
(1.35159 8.26238e-11 0)
(1.35159 1.107e-10 0)
(1.35159 -5.57067e-11 0)
(1.35159 -6.52923e-11 0)
(1.35159 2.72333e-11 0)
(1.35159 -5.83394e-11 0)
(1.35159 -2.41821e-10 0)
(1.35159 -2.75766e-10 0)
(1.35159 -2.81289e-10 0)
(1.35159 -3.09802e-10 0)
(1.35159 -4.03209e-10 0)
(1.35159 -9.99724e-10 0)
(1.35159 -1.49018e-09 0)
(1.35159 -2.22542e-09 0)
(1.35159 -2.32892e-09 0)
(1.35159 -4.20171e-09 0)
(1.00109 -0.0224478 0)
(1.02553 -0.0539474 0)
(1.05878 -0.0683459 0)
(1.09057 -0.0726597 0)
(1.11664 -0.0722635 0)
(1.13706 -0.0688935 0)
(1.1527 -0.0633367 0)
(1.16412 -0.0565643 0)
(1.1718 -0.0495611 0)
(1.17636 -0.0430024 0)
(1.1785 -0.0372 0)
(1.17887 -0.0322232 0)
(1.17803 -0.0280274 0)
(1.17639 -0.0245229 0)
(1.17426 -0.0216117 0)
(1.17184 -0.0191938 0)
(1.16927 -0.0171737 0)
(1.16665 -0.0154689 0)
(1.16404 -0.0140127 0)
(1.16148 -0.0127538 0)
(1.15901 -0.0116537 0)
(1.15664 -0.0106831 0)
(1.15437 -0.00981999 0)
(1.15221 -0.00904724 0)
(1.15016 -0.00835156 0)
(1.14822 -0.0077224 0)
(1.14638 -0.00715128 0)
(1.14465 -0.0066312 0)
(1.14301 -0.00615632 0)
(1.14147 -0.00572169 0)
(1.14002 -0.00532305 0)
(1.13866 -0.0049567 0)
(1.13738 -0.00461943 0)
(1.13617 -0.00430839 0)
(1.13504 -0.00402111 0)
(1.13398 -0.00375538 0)
(1.13298 -0.00350926 0)
(1.13204 -0.00328101 0)
(1.13116 -0.00306908 0)
(1.13033 -0.00287211 0)
(1.12956 -0.00268884 0)
(1.12883 -0.00251817 0)
(1.12815 -0.00235911 0)
(1.12751 -0.00221075 0)
(1.1269 -0.00207227 0)
(1.12634 -0.00194294 0)
(1.12581 -0.00182208 0)
(1.12531 -0.00170907 0)
(1.12485 -0.00160334 0)
(1.12441 -0.00150438 0)
(1.124 -0.00141171 0)
(1.12361 -0.00132488 0)
(1.12325 -0.00124347 0)
(1.12291 -0.0011671 0)
(1.12259 -0.00109538 0)
(1.12229 -0.00102798 0)
(1.12201 -0.000964537 0)
(1.12174 -0.000904734 0)
(1.1215 -0.000848249 0)
(1.12127 -0.000794768 0)
(1.12105 -0.000743991 0)
(1.12084 -0.00069563 0)
(1.12065 -0.000649412 0)
(1.12047 -0.000605085 0)
(1.12031 -0.000562428 0)
(1.12015 -0.00052125 0)
(1.12001 -0.000481402 0)
(1.11987 -0.00044278 0)
(1.11975 -0.000405327 0)
(1.11963 -0.000369034 0)
(1.11953 -0.000333941 0)
(1.11943 -0.000300128 0)
(1.11934 -0.000267709 0)
(1.11926 -0.000236826 0)
(1.11919 -0.00020763 0)
(1.11913 -0.000180275 0)
(1.11907 -0.000154901 0)
(1.11902 -0.000131626 0)
(1.11898 -0.000110532 0)
(1.11895 -9.16629e-05 0)
(1.11892 -7.5014e-05 0)
(1.11889 -6.0537e-05 0)
(1.11887 -4.8141e-05 0)
(1.11885 -3.76971e-05 0)
(1.11884 -2.9045e-05 0)
(1.11883 -2.20021e-05 0)
(1.11882 -1.63725e-05 0)
(1.11881 -1.19573e-05 0)
(1.11881 -8.56204e-06 0)
(1.11881 -6.00409e-06 0)
(1.1188 -4.11778e-06 0)
(1.1188 -2.75756e-06 0)
(1.1188 -1.79951e-06 0)
(1.1188 -1.14138e-06 0)
(1.1188 -7.0134e-07 0)
(1.1188 -4.15608e-07 0)
(1.1188 -2.35957e-07 0)
(1.1188 -1.27058e-07 0)
(1.1188 -6.3845e-08 0)
(1.1188 -2.90943e-08 0)
(1.1188 -1.1173e-08 0)
(1.1188 -2.76275e-09 0)
(1.1188 4.98378e-10 0)
(1.1188 1.27975e-09 0)
(1.1188 1.14884e-09 0)
(1.1188 7.80048e-10 0)
(1.1188 5.3529e-10 0)
(1.1188 5.15813e-10 0)
(1.1188 4.62205e-10 0)
(1.1188 2.37101e-10 0)
(1.1188 1.09349e-10 0)
(1.1188 2.29411e-10 0)
(1.1188 3.58753e-10 0)
(1.1188 4.69222e-10 0)
(1.1188 6.3691e-10 0)
(1.1188 7.29792e-10 0)
(1.1188 6.88398e-10 0)
(1.1188 5.83504e-10 0)
(1.1188 4.49585e-10 0)
(1.1188 2.27176e-10 0)
(1.1188 3.21504e-11 0)
(1.1188 2.01772e-12 0)
(1.1188 -1.10741e-10 0)
(1.1188 -3.70571e-10 0)
(1.1188 -4.40889e-10 0)
(1.1188 -4.08403e-10 0)
(1.1188 -4.5362e-10 0)
(1.1188 -2.75387e-10 0)
(1.1188 -1.2627e-10 0)
(1.1188 -2.44001e-10 0)
(1.1188 -2.54213e-10 0)
(1.1188 3.26733e-11 0)
(1.1188 -2.72265e-12 0)
(1.1188 -1.14816e-10 0)
(1.1188 1.59772e-10 0)
(1.1188 1.42836e-10 0)
(1.1188 -8.03124e-11 0)
(1.1188 1.36761e-10 0)
(1.1188 5.7553e-11 0)
(1.1188 -2.99436e-10 0)
(1.1188 -2.02245e-10 0)
(1.1188 -9.35961e-11 0)
(1.1188 -3.39004e-10 0)
(1.1188 -3.91817e-10 0)
(1.1188 -7.11101e-10 0)
(1.1188 -9.84089e-10 0)
(1.1188 -1.3891e-09 0)
(1.1188 -2.51224e-09 0)
(1.1188 -3.00217e-09 0)
(1.1188 -4.65515e-09 0)
(1.00086 -0.053703 0)
(1.0315 -0.0984002 0)
(1.05406 -0.106345 0)
(1.05901 -0.102383 0)
(1.05111 -0.0943727 0)
(1.03725 -0.0837419 0)
(1.02055 -0.0714304 0)
(1.00228 -0.0589075 0)
(0.983386 -0.047422 0)
(0.964772 -0.0376081 0)
(0.947155 -0.0296082 0)
(0.93094 -0.0233046 0)
(0.916272 -0.0184673 0)
(0.903124 -0.0148269 0)
(0.891397 -0.0121247 0)
(0.880955 -0.0101299 0)
(0.871649 -0.00864963 0)
(0.86333 -0.00753385 0)
(0.855863 -0.00667221 0)
(0.849129 -0.00598724 0)
(0.84303 -0.00542608 0)
(0.837481 -0.00495329 0)
(0.832413 -0.00454535 0)
(0.827769 -0.00418663 0)
(0.8235 -0.00386673 0)
(0.819567 -0.00357857 0)
(0.815935 -0.0033172 0)
(0.812574 -0.00307901 0)
(0.809459 -0.00286122 0)
(0.806569 -0.00266158 0)
(0.803883 -0.00247822 0)
(0.801384 -0.0023095 0)
(0.799057 -0.00215403 0)
(0.796889 -0.00201053 0)
(0.794866 -0.0018779 0)
(0.792978 -0.00175514 0)
(0.791215 -0.00164136 0)
(0.789566 -0.00153577 0)
(0.788026 -0.00143767 0)
(0.786584 -0.00134641 0)
(0.785235 -0.00126143 0)
(0.783972 -0.00118223 0)
(0.782789 -0.00110835 0)
(0.78168 -0.00103937 0)
(0.780642 -0.000974933 0)
(0.779668 -0.00091469 0)
(0.778755 -0.000858338 0)
(0.777899 -0.000805597 0)
(0.777096 -0.000756209 0)
(0.776343 -0.00070994 0)
(0.775636 -0.000666569 0)
(0.774973 -0.000625893 0)
(0.774351 -0.000587721 0)
(0.773766 -0.000551871 0)
(0.773218 -0.00051817 0)
(0.772704 -0.000486453 0)
(0.772221 -0.000456557 0)
(0.771769 -0.000428326 0)
(0.771345 -0.000401605 0)
(0.770947 -0.000376245 0)
(0.770575 -0.000352102 0)
(0.770227 -0.000329038 0)
(0.769902 -0.000306926 0)
(0.769599 -0.000285652 0)
(0.769317 -0.000265118 0)
(0.769056 -0.000245243 0)
(0.768815 -0.000225973 0)
(0.768593 -0.000207272 0)
(0.768389 -0.000189131 0)
(0.768203 -0.000171565 0)
(0.768035 -0.00015461 0)
(0.767883 -0.00013832 0)
(0.767748 -0.000122761 0)
(0.767628 -0.000108009 0)
(0.767522 -9.41417e-05 0)
(0.76743 -8.12312e-05 0)
(0.767351 -6.93405e-05 0)
(0.767283 -5.85177e-05 0)
(0.767226 -4.87921e-05 0)
(0.767179 -4.01715e-05 0)
(0.76714 -3.26405e-05 0)
(0.767108 -2.61602e-05 0)
(0.767083 -2.06692e-05 0)
(0.767063 -1.60888e-05 0)
(0.767047 -1.23292e-05 0)
(0.767036 -9.29454e-06 0)
(0.767027 -6.88754e-06 0)
(0.76702 -5.01265e-06 0)
(0.767015 -3.57955e-06 0)
(0.767012 -2.50545e-06 0)
(0.76701 -1.71668e-06 0)
(0.767008 -1.14966e-06 0)
(0.767007 -7.51161e-07 0)
(0.767007 -4.77767e-07 0)
(0.767006 -2.94948e-07 0)
(0.767006 -1.76023e-07 0)
(0.767006 -1.01048e-07 0)
(0.767006 -5.54176e-08 0)
(0.767006 -2.86448e-08 0)
(0.767006 -1.35438e-08 0)
(0.767006 -5.60194e-09 0)
(0.767006 -1.85171e-09 0)
(0.767006 -3.47169e-10 0)
(0.767006 1.57223e-10 0)
(0.767006 2.60775e-10 0)
(0.767006 3.04057e-10 0)
(0.767006 3.28082e-10 0)
(0.767006 2.97549e-10 0)
(0.767006 2.93411e-10 0)
(0.767006 2.53188e-10 0)
(0.767006 1.21582e-10 0)
(0.767006 6.02182e-11 0)
(0.767006 1.8639e-10 0)
(0.767006 3.17861e-10 0)
(0.767006 3.46476e-10 0)
(0.767006 3.06411e-10 0)
(0.767006 3.25639e-10 0)
(0.767006 3.28952e-10 0)
(0.767006 2.31949e-10 0)
(0.767006 5.89123e-11 0)
(0.767006 -1.7833e-11 0)
(0.767006 4.39283e-12 0)
(0.767006 -3.60743e-11 0)
(0.767006 -1.93165e-10 0)
(0.767006 -1.98784e-10 0)
(0.767006 -1.73203e-10 0)
(0.767006 -2.08405e-10 0)
(0.767006 -2.64347e-10 0)
(0.767006 -2.4895e-10 0)
(0.767006 -1.23637e-10 0)
(0.767006 -3.34267e-12 0)
(0.767006 2.04014e-11 0)
(0.767006 -3.08497e-12 0)
(0.767006 -6.86729e-11 0)
(0.767006 3.55362e-11 0)
(0.767006 1.61805e-10 0)
(0.767006 -1.63822e-11 0)
(0.767006 -1.50517e-11 0)
(0.767006 -3.21701e-12 0)
(0.767006 -6.28407e-11 0)
(0.767006 5.15866e-11 0)
(0.767006 -1.51771e-10 0)
(0.767006 -4.41799e-10 0)
(0.767006 -1.56249e-10 0)
(0.767006 -4.78125e-10 0)
(0.767006 -4.36036e-10 0)
(0.767006 -7.01343e-10 0)
(0.767006 -1.39983e-09 0)
(0.767006 -1.81218e-09 0)
(0.767006 -2.75456e-09 0)
(0.926666 -0.0391663 0)
(0.882391 -0.0655941 0)
(0.809159 -0.0645405 0)
(0.718109 -0.0565022 0)
(0.634383 -0.0468943 0)
(0.567019 -0.0366737 0)
(0.514326 -0.0267511 0)
(0.473009 -0.0182833 0)
(0.440937 -0.0118414 0)
(0.416523 -0.00732497 0)
(0.398172 -0.00434968 0)
(0.38436 -0.00251117 0)
(0.373829 -0.00146162 0)
(0.365621 -0.000922022 0)
(0.359046 -0.0006816 0)
(0.353615 -0.000600423 0)
(0.348993 -0.000594209 0)
(0.344957 -0.000615384 0)
(0.341357 -0.000639166 0)
(0.338098 -0.000654467 0)
(0.335117 -0.000657948 0)
(0.332375 -0.000650179 0)
(0.32984 -0.000633346 0)
(0.327493 -0.000610014 0)
(0.325315 -0.000582536 0)
(0.323292 -0.000552825 0)
(0.321413 -0.000522316 0)
(0.319665 -0.000492009 0)
(0.318038 -0.000462557 0)
(0.316523 -0.000434349 0)
(0.315111 -0.000407592 0)
(0.313795 -0.000382369 0)
(0.312566 -0.000358683 0)
(0.311419 -0.000336491 0)
(0.310348 -0.000315723 0)
(0.309346 -0.000296297 0)
(0.308408 -0.000278127 0)
(0.307531 -0.000261126 0)
(0.30671 -0.000245213 0)
(0.30594 -0.000230313 0)
(0.305219 -0.000216354 0)
(0.304543 -0.000203271 0)
(0.30391 -0.000191005 0)
(0.303315 -0.000179499 0)
(0.302757 -0.000168704 0)
(0.302234 -0.000158574 0)
(0.301743 -0.000149064 0)
(0.301282 -0.000140135 0)
(0.300849 -0.000131752 0)
(0.300443 -0.000123878 0)
(0.300061 -0.000116483 0)
(0.299703 -0.000109537 0)
(0.299366 -0.00010301 0)
(0.29905 -9.68755e-05 0)
(0.298753 -9.11071e-05 0)
(0.298474 -8.56789e-05 0)
(0.298212 -8.05654e-05 0)
(0.297966 -7.57412e-05 0)
(0.297735 -7.11809e-05 0)
(0.297519 -6.68594e-05 0)
(0.297316 -6.27514e-05 0)
(0.297126 -5.88325e-05 0)
(0.296949 -5.5079e-05 0)
(0.296783 -5.14686e-05 0)
(0.296629 -4.79814e-05 0)
(0.296486 -4.46003e-05 0)
(0.296354 -4.13116e-05 0)
(0.296232 -3.81056e-05 0)
(0.29612 -3.49771e-05 0)
(0.296018 -3.19256e-05 0)
(0.295925 -2.89551e-05 0)
(0.295842 -2.60739e-05 0)
(0.295767 -2.32937e-05 0)
(0.295701 -2.0629e-05 0)
(0.295643 -1.80959e-05 0)
(0.295592 -1.57113e-05 0)
(0.295549 -1.34913e-05 0)
(0.295511 -1.14503e-05 0)
(0.29548 -9.59991e-06 0)
(0.295454 -7.94755e-06 0)
(0.295432 -6.49565e-06 0)
(0.295415 -5.24047e-06 0)
(0.295401 -4.17133e-06 0)
(0.295389 -3.27341e-06 0)
(0.295381 -2.53037e-06 0)
(0.295374 -1.92512e-06 0)
(0.295369 -1.44023e-06 0)
(0.295366 -1.05845e-06 0)
(0.295363 -7.63355e-07 0)
(0.295361 -5.39674e-07 0)
(0.29536 -3.73515e-07 0)
(0.295359 -2.52634e-07 0)
(0.295358 -1.66674e-07 0)
(0.295358 -1.07018e-07 0)
(0.295358 -6.66636e-08 0)
(0.295358 -4.00869e-08 0)
(0.295357 -2.31465e-08 0)
(0.295357 -1.27625e-08 0)
(0.295357 -6.61122e-09 0)
(0.295357 -3.02397e-09 0)
(0.295357 -1.1347e-09 0)
(0.295357 -2.82379e-10 0)
(0.295357 1.96258e-12 0)
(0.295357 6.49106e-11 0)
(0.295357 7.18629e-11 0)
(0.295357 1.23744e-10 0)
(0.295357 1.27312e-10 0)
(0.295357 6.30983e-11 0)
(0.295357 9.23498e-11 0)
(0.295357 1.22649e-10 0)
(0.295357 2.33036e-11 0)
(0.295357 -6.50154e-11 0)
(0.295357 -4.3959e-12 0)
(0.295357 8.41683e-11 0)
(0.295357 8.73e-11 0)
(0.295357 3.23078e-11 0)
(0.295357 5.911e-11 0)
(0.295357 6.52533e-11 0)
(0.295357 4.30079e-11 0)
(0.295357 2.55293e-11 0)
(0.295357 1.7059e-11 0)
(0.295357 -3.4881e-11 0)
(0.295357 -6.05385e-11 0)
(0.295357 -2.17761e-11 0)
(0.295357 -1.12144e-12 0)
(0.295357 -1.83771e-11 0)
(0.295357 -3.28223e-11 0)
(0.295357 -1.2995e-10 0)
(0.295357 -1.43367e-10 0)
(0.295357 -2.59869e-11 0)
(0.295357 5.59798e-11 0)
(0.295357 2.8059e-12 0)
(0.295357 1.17913e-11 0)
(0.295357 -2.51054e-11 0)
(0.295357 -1.11388e-11 0)
(0.295357 7.2578e-11 0)
(0.295357 -3.06897e-11 0)
(0.295357 -3.76113e-12 0)
(0.295357 9.81985e-11 0)
(0.295357 2.71817e-12 0)
(0.295357 -4.69557e-11 0)
(0.295357 -7.76932e-11 0)
(0.295357 -1.73861e-10 0)
(0.295357 2.65974e-11 0)
(0.295357 5.76271e-11 0)
(0.295357 -5.02324e-11 0)
(0.295357 -4.27485e-10 0)
(0.295357 -4.1268e-10 0)
(0.295357 -3.78916e-10 0)
(0.295357 -7.02144e-10 0)
(1.00046 0.00322028 0)
(1.01239 0.00877588 0)
(1.03419 0.0123004 0)
(1.06242 0.0138676 0)
(1.09278 0.0142764 0)
(1.12254 0.0140884 0)
(1.15063 0.0135033 0)
(1.17669 0.012618 0)
(1.20052 0.0115724 0)
(1.22197 0.0105039 0)
(1.2411 0.00950146 0)
(1.25815 0.00860423 0)
(1.2734 0.00782026 0)
(1.28714 0.00714313 0)
(1.2996 0.00655967 0)
(1.31098 0.00605508 0)
(1.32143 0.00561531 0)
(1.33107 0.00522782 0)
(1.34 0.00488204 0)
(1.34829 0.00456952 0)
(1.35602 0.00428389 0)
(1.36322 0.00402048 0)
(1.36995 0.00377586 0)
(1.37624 0.00354757 0)
(1.38212 0.00333376 0)
(1.38762 0.00313308 0)
(1.39277 0.00294447 0)
(1.39759 0.00276709 0)
(1.4021 0.00260021 0)
(1.40633 0.00244322 0)
(1.41029 0.00229555 0)
(1.414 0.00215666 0)
(1.41748 0.00202606 0)
(1.42074 0.00190327 0)
(1.4238 0.00178787 0)
(1.42666 0.0016794 0)
(1.42935 0.00157749 0)
(1.43187 0.00148173 0)
(1.43423 0.00139177 0)
(1.43645 0.00130727 0)
(1.43853 0.00122789 0)
(1.44048 0.00115334 0)
(1.44231 0.00108331 0)
(1.44403 0.00101754 0)
(1.44565 0.000955777 0)
(1.44716 0.000897767 0)
(1.44858 0.000843286 0)
(1.44992 0.000792118 0)
(1.45117 0.000744061 0)
(1.45235 0.000698923 0)
(1.45345 0.000656522 0)
(1.45449 0.000616688 0)
(1.45546 0.000579257 0)
(1.45638 0.000544073 0)
(1.45723 0.000510989 0)
(1.45804 0.000479862 0)
(1.4588 0.000450553 0)
(1.45951 0.000422928 0)
(1.46017 0.000396856 0)
(1.4608 0.000372211 0)
(1.46138 0.000348867 0)
(1.46193 0.000326705 0)
(1.46245 0.00030561 0)
(1.46292 0.000285471 0)
(1.46337 0.000266188 0)
(1.46379 0.000247668 0)
(1.46417 0.000229832 0)
(1.46453 0.000212616 0)
(1.46486 0.000195969 0)
(1.46516 0.00017986 0)
(1.46544 0.000164276 0)
(1.46569 0.00014922 0)
(1.46591 0.000134713 0)
(1.46611 0.00012079 0)
(1.46629 0.000107497 0)
(1.46645 9.48873e-05 0)
(1.46659 8.30176e-05 0)
(1.46671 7.19422e-05 0)
(1.46681 6.17095e-05 0)
(1.4669 5.23577e-05 0)
(1.46697 4.3911e-05 0)
(1.46703 3.63777e-05 0)
(1.46708 2.9749e-05 0)
(1.46712 2.39989e-05 0)
(1.46716 1.90852e-05 0)
(1.46718 1.49518e-05 0)
(1.4672 1.15312e-05 0)
(1.46721 8.74845e-06 0)
(1.46722 6.52434e-06 0)
(1.46723 4.77907e-06 0)
(1.46724 3.43543e-06 0)
(1.46724 2.4213e-06 0)
(1.46724 1.6714e-06 0)
(1.46724 1.12852e-06 0)
(1.46725 7.4423e-07 0)
(1.46725 4.78603e-07 0)
(1.46725 2.99503e-07 0)
(1.46725 1.81873e-07 0)
(1.46725 1.06862e-07 0)
(1.46725 6.05447e-08 0)
(1.46725 3.28053e-08 0)
(1.46725 1.67715e-08 0)
(1.46725 8.00482e-09 0)
(1.46725 3.56348e-09 0)
(1.46725 1.52553e-09 0)
(1.46725 6.86064e-10 0)
(1.46725 3.5436e-10 0)
(1.46725 1.58638e-10 0)
(1.46725 8.64192e-12 0)
(1.46725 -2.84179e-11 0)
(1.46725 8.71769e-11 0)
(1.46725 2.09827e-10 0)
(1.46725 1.97497e-10 0)
(1.46725 1.20508e-10 0)
(1.46725 1.47601e-10 0)
(1.46725 1.69859e-10 0)
(1.46725 -1.5335e-11 0)
(1.46725 -2.37858e-10 0)
(1.46725 -1.69867e-10 0)
(1.46725 -3.24428e-12 0)
(1.46725 2.52393e-11 0)
(1.46725 -2.82058e-11 0)
(1.46725 -5.19596e-11 0)
(1.46725 -3.95604e-11 0)
(1.46725 2.53053e-13 0)
(1.46725 1.63058e-11 0)
(1.46725 8.1343e-11 0)
(1.46725 1.54167e-10 0)
(1.46725 7.12885e-11 0)
(1.46725 1.20216e-11 0)
(1.46725 6.46232e-11 0)
(1.46725 2.38974e-11 0)
(1.46725 8.25433e-11 0)
(1.46725 6.72036e-11 0)
(1.46725 -2.11689e-10 0)
(1.46725 -2.84883e-10 0)
(1.46725 -1.00998e-10 0)
(1.46725 -2.23941e-11 0)
(1.46725 -1.34311e-10 0)
(1.46725 -2.65514e-10 0)
(1.46725 -2.45317e-10 0)
(1.46725 -8.07272e-11 0)
(1.46725 -2.03391e-10 0)
(1.46725 -2.06518e-10 0)
(1.46725 4.51243e-11 0)
(1.46725 1.6642e-10 0)
(1.46725 6.17e-12 0)
(1.46725 3.73355e-10 0)
(1.46725 4.42674e-10 0)
(1.46725 1.36078e-09 0)
(1.00056 0.0107264 0)
(1.01593 0.0280185 0)
(1.04218 0.0380259 0)
(1.07349 0.0421349 0)
(1.10484 0.0430351 0)
(1.13403 0.0421632 0)
(1.16045 0.0400181 0)
(1.18392 0.0369852 0)
(1.20434 0.0335461 0)
(1.22177 0.0301142 0)
(1.2365 0.0269357 0)
(1.24891 0.0241105 0)
(1.25943 0.0216535 0)
(1.26843 0.0195424 0)
(1.2762 0.0177348 0)
(1.28297 0.0161836 0)
(1.28892 0.0148436 0)
(1.29418 0.0136748 0)
(1.29888 0.0126436 0)
(1.3031 0.0117234 0)
(1.3069 0.0108939 0)
(1.31035 0.0101398 0)
(1.31348 0.00944974 0)
(1.31634 0.00881489 0)
(1.31895 0.00822859 0)
(1.32134 0.0076856 0)
(1.32354 0.00718172 0)
(1.32556 0.00671346 0)
(1.32742 0.00627787 0)
(1.32913 0.00587234 0)
(1.33072 0.00549459 0)
(1.33218 0.00514251 0)
(1.33354 0.00481423 0)
(1.3348 0.00450799 0)
(1.33597 0.00422222 0)
(1.33706 0.00395543 0)
(1.33807 0.00370627 0)
(1.33901 0.0034735 0)
(1.33989 0.00325595 0)
(1.34071 0.00305257 0)
(1.34147 0.00286236 0)
(1.34219 0.00268442 0)
(1.34285 0.00251791 0)
(1.34348 0.00236205 0)
(1.34406 0.00221612 0)
(1.34461 0.00207945 0)
(1.34512 0.00195142 0)
(1.3456 0.00183146 0)
(1.34605 0.00171902 0)
(1.34647 0.00161362 0)
(1.34686 0.00151478 0)
(1.34723 0.00142206 0)
(1.34758 0.00133506 0)
(1.34791 0.00125338 0)
(1.34821 0.00117666 0)
(1.3485 0.00110453 0)
(1.34877 0.00103666 0)
(1.34902 0.000972714 0)
(1.34925 0.000912376 0)
(1.34947 0.000855333 0)
(1.34968 0.00080128 0)
(1.34987 0.000749927 0)
(1.35005 0.000700994 0)
(1.35022 0.000654218 0)
(1.35038 0.00060936 0)
(1.35052 0.000566206 0)
(1.35065 0.000524575 0)
(1.35078 0.000484326 0)
(1.35089 0.000445359 0)
(1.35099 0.000407618 0)
(1.35108 0.000371095 0)
(1.35116 0.000335824 0)
(1.35123 0.000301879 0)
(1.3513 0.000269366 0)
(1.35135 0.000238413 0)
(1.3514 0.000209164 0)
(1.35144 0.00018176 0)
(1.35147 0.000156334 0)
(1.3515 0.000132996 0)
(1.35152 0.000111827 0)
(1.35154 9.28672e-05 0)
(1.35155 7.6116e-05 0)
(1.35157 6.15281e-05 0)
(1.35157 4.90163e-05 0)
(1.35158 3.84551e-05 0)
(1.35158 2.96883e-05 0)
(1.35159 2.25367e-05 0)
(1.35159 1.68076e-05 0)
(1.35159 1.23037e-05 0)
(1.35159 8.83187e-06 0)
(1.35159 6.20985e-06 0)
(1.35159 4.27104e-06 0)
(1.35159 2.86884e-06 0)
(1.35159 1.87843e-06 0)
(1.35159 1.1963e-06 0)
(1.35159 7.38759e-07 0)
(1.35159 4.40431e-07 0)
(1.35159 2.52082e-07 0)
(1.35159 1.3748e-07 0)
(1.35159 7.04875e-08 0)
(1.35159 3.29519e-08 0)
(1.35159 1.32072e-08 0)
(1.35159 3.9738e-09 0)
(1.35159 3.52242e-10 0)
(1.35159 -7.1222e-10 0)
(1.35159 -7.8952e-10 0)
(1.35159 -5.68745e-10 0)
(1.35159 -3.8726e-10 0)
(1.35159 -2.87773e-10 0)
(1.35159 -1.26967e-10 0)
(1.35159 1.5666e-11 0)
(1.35159 9.45952e-11 0)
(1.35159 7.08967e-11 0)
(1.35159 -5.90307e-11 0)
(1.35159 -1.26111e-10 0)
(1.35159 -2.02142e-10 0)
(1.35159 -3.33654e-10 0)
(1.35159 -4.30404e-10 0)
(1.35159 -3.5545e-10 0)
(1.35159 -9.44543e-11 0)
(1.35159 6.13852e-11 0)
(1.35159 -7.27488e-11 0)
(1.35159 -1.68627e-10 0)
(1.35159 8.56181e-11 0)
(1.35159 2.32064e-10 0)
(1.35159 1.57424e-10 0)
(1.35159 2.17505e-10 0)
(1.35159 3.55552e-10 0)
(1.35159 2.88034e-10 0)
(1.35159 1.02111e-10 0)
(1.35159 7.33544e-11 0)
(1.35159 8.56968e-11 0)
(1.35159 9.56896e-11 0)
(1.35159 -6.09784e-11 0)
(1.35159 -2.65104e-10 0)
(1.35159 -1.22044e-10 0)
(1.35159 -9.51988e-11 0)
(1.35159 -2.64409e-10 0)
(1.35159 -3.10146e-10 0)
(1.35159 -1.73756e-10 0)
(1.35159 -5.69806e-11 0)
(1.35159 -5.98554e-12 0)
(1.35159 -3.32418e-11 0)
(1.35159 -3.96922e-11 0)
(1.35159 3.00324e-10 0)
(1.35159 5.56646e-10 0)
(1.35159 8.82477e-10 0)
(1.35159 1.97464e-09 0)
(1.35159 2.4771e-09 0)
(1.35159 4.23561e-09 0)
(1.00109 0.0224478 0)
(1.02553 0.0539474 0)
(1.05878 0.0683459 0)
(1.09057 0.0726597 0)
(1.11664 0.0722635 0)
(1.13706 0.0688935 0)
(1.1527 0.0633367 0)
(1.16412 0.0565643 0)
(1.1718 0.0495611 0)
(1.17636 0.0430024 0)
(1.1785 0.0372 0)
(1.17887 0.0322232 0)
(1.17803 0.0280274 0)
(1.17639 0.0245229 0)
(1.17426 0.0216117 0)
(1.17184 0.0191938 0)
(1.16927 0.0171737 0)
(1.16665 0.0154689 0)
(1.16404 0.0140127 0)
(1.16148 0.0127538 0)
(1.15901 0.0116537 0)
(1.15664 0.0106831 0)
(1.15437 0.00981999 0)
(1.15221 0.00904724 0)
(1.15016 0.00835156 0)
(1.14822 0.0077224 0)
(1.14638 0.00715128 0)
(1.14465 0.0066312 0)
(1.14301 0.00615632 0)
(1.14147 0.00572169 0)
(1.14002 0.00532305 0)
(1.13866 0.0049567 0)
(1.13738 0.00461943 0)
(1.13617 0.00430839 0)
(1.13504 0.00402111 0)
(1.13398 0.00375538 0)
(1.13298 0.00350926 0)
(1.13204 0.00328101 0)
(1.13116 0.00306908 0)
(1.13033 0.00287211 0)
(1.12956 0.00268884 0)
(1.12883 0.00251817 0)
(1.12815 0.00235911 0)
(1.12751 0.00221075 0)
(1.1269 0.00207227 0)
(1.12634 0.00194294 0)
(1.12581 0.00182208 0)
(1.12531 0.00170907 0)
(1.12485 0.00160334 0)
(1.12441 0.00150438 0)
(1.124 0.00141171 0)
(1.12361 0.00132488 0)
(1.12325 0.00124347 0)
(1.12291 0.0011671 0)
(1.12259 0.00109538 0)
(1.12229 0.00102798 0)
(1.12201 0.000964537 0)
(1.12174 0.000904734 0)
(1.1215 0.000848248 0)
(1.12127 0.000794767 0)
(1.12105 0.000743991 0)
(1.12084 0.00069563 0)
(1.12065 0.000649411 0)
(1.12047 0.000605085 0)
(1.12031 0.000562428 0)
(1.12015 0.00052125 0)
(1.12001 0.000481402 0)
(1.11987 0.00044278 0)
(1.11975 0.000405327 0)
(1.11963 0.000369034 0)
(1.11953 0.000333941 0)
(1.11943 0.000300128 0)
(1.11934 0.000267709 0)
(1.11926 0.000236826 0)
(1.11919 0.00020763 0)
(1.11913 0.000180275 0)
(1.11907 0.000154901 0)
(1.11902 0.000131626 0)
(1.11898 0.000110533 0)
(1.11895 9.16629e-05 0)
(1.11892 7.50141e-05 0)
(1.11889 6.05372e-05 0)
(1.11887 4.81413e-05 0)
(1.11885 3.76973e-05 0)
(1.11884 2.90452e-05 0)
(1.11883 2.20022e-05 0)
(1.11882 1.63728e-05 0)
(1.11881 1.19577e-05 0)
(1.11881 8.56248e-06 0)
(1.11881 6.00455e-06 0)
(1.1188 4.11824e-06 0)
(1.1188 2.75785e-06 0)
(1.1188 1.79951e-06 0)
(1.1188 1.14122e-06 0)
(1.1188 7.01171e-07 0)
(1.1188 4.1542e-07 0)
(1.1188 2.35688e-07 0)
(1.1188 1.26793e-07 0)
(1.1188 6.36923e-08 0)
(1.1188 2.89125e-08 0)
(1.1188 1.08962e-08 0)
(1.1188 2.48122e-09 0)
(1.1188 -7.45902e-10 0)
(1.1188 -1.45495e-09 0)
(1.1188 -1.25843e-09 0)
(1.1188 -9.55729e-10 0)
(1.1188 -7.41029e-10 0)
(1.1188 -5.04777e-10 0)
(1.1188 -1.68529e-10 0)
(1.1188 7.67955e-11 0)
(1.1188 1.09461e-10 0)
(1.1188 3.21286e-11 0)
(1.1188 -9.52222e-11 0)
(1.1188 -2.68118e-10 0)
(1.1188 -3.90074e-10 0)
(1.1188 -3.55622e-10 0)
(1.1188 -2.86054e-10 0)
(1.1188 -2.64901e-10 0)
(1.1188 -2.59076e-10 0)
(1.1188 -1.77294e-10 0)
(1.1188 -1.19129e-10 0)
(1.1188 -1.58911e-10 0)
(1.1188 -3.22645e-11 0)
(1.1188 2.27119e-10 0)
(1.1188 3.125e-10 0)
(1.1188 2.80241e-10 0)
(1.1188 2.01971e-10 0)
(1.1188 1.29744e-10 0)
(1.1188 1.48131e-10 0)
(1.1188 1.17369e-10 0)
(1.1188 9.39661e-11 0)
(1.1188 1.44954e-10 0)
(1.1188 5.67161e-11 0)
(1.1188 -7.89731e-11 0)
(1.1188 -2.45283e-11 0)
(1.1188 -3.39333e-11 0)
(1.1188 -2.20183e-10 0)
(1.1188 -4.26838e-10 0)
(1.1188 -2.58097e-10 0)
(1.1188 -3.81866e-11 0)
(1.1188 7.79344e-11 0)
(1.1188 6.35389e-11 0)
(1.1188 1.19984e-10 0)
(1.1188 6.09829e-11 0)
(1.1188 3.37392e-10 0)
(1.1188 6.90088e-10 0)
(1.1188 1.44314e-09 0)
(1.1188 2.24525e-09 0)
(1.1188 2.62288e-09 0)
(1.1188 4.29467e-09 0)
(1.00086 0.053703 0)
(1.0315 0.0984002 0)
(1.05406 0.106345 0)
(1.05901 0.102383 0)
(1.05111 0.0943727 0)
(1.03725 0.0837419 0)
(1.02055 0.0714304 0)
(1.00228 0.0589075 0)
(0.983386 0.047422 0)
(0.964772 0.0376081 0)
(0.947155 0.0296082 0)
(0.93094 0.0233046 0)
(0.916272 0.0184673 0)
(0.903124 0.0148269 0)
(0.891397 0.0121247 0)