/*--------------------------------*- C++ -*----------------------------------*\
  =========                 |
  \\      /  F ield         | OpenFOAM: The Open Source CFD Toolbox
   \\    /   O peration     | Website:  https://openfoam.org
    \\  /    A nd           | Version:  7
     \\/     M anipulation  |
\*---------------------------------------------------------------------------*/
FoamFile
{
    version     2.0;
    format      ascii;
    class       volScalarField;
    location    "3";
    object      p;
}
// * * * * * * * * * * * * * * * * * * * * * * * * * * * * * * * * * * * * * //

dimensions      [0 2 -2 0 0 0 0];

internalField   nonuniform List<scalar> 
48000
(
1.96554
1.96557
1.96555
1.96546
1.96531
1.9651
1.96483
1.9645
1.96412
1.96367
1.96316
1.96259
1.96196
1.96127
1.96052
1.95971
1.95885
1.95792
1.95693
1.95589
1.95479
1.95363
1.95241
1.95115
1.94982
1.94845
1.94702
1.94554
1.94401
1.94244
1.94081
1.93914
1.93743
1.93567
1.93387
1.93203
1.93014
1.92823
1.92627
1.92428
1.92225
1.92019
1.9181
1.91598
1.91383
1.91165
1.90945
1.90722
1.90497
1.9027
1.90041
1.8981
1.89576
1.89342
1.89105
1.88867
1.88628
1.88387
1.88145
1.87902
1.87659
1.87414
1.87168
1.86922
1.86675
1.86428
1.8618
1.85931
1.85683
1.85434
1.85185
1.84935
1.84686
1.84437
1.84188
1.83938
1.83689
1.83441
1.83192
1.82944
1.82695
1.82448
1.822
1.81953
1.81707
1.81461
1.81215
1.8097
1.80726
1.80482
1.80238
1.79995
1.79753
1.79512
1.7927
1.7903
1.7879
1.78551
1.78313
1.78075
1.77838
1.77601
1.77365
1.7713
1.76895
1.76661
1.76428
1.76195
1.75963
1.75732
1.75501
1.75271
1.75042
1.74813
1.74584
1.74357
1.7413
1.73903
1.73677
1.73452
1.73227
1.73002
1.72778
1.72555
1.72332
1.7211
1.71888
1.71667
1.71446
1.71225
1.71005
1.70786
1.70566
1.70348
1.70129
1.69911
1.69693
1.69476
1.69259
1.69042
1.68826
1.6861
1.68394
1.68178
1.67963
1.67748
1.67533
1.67319
1.67104
1.6689
1.66676
1.66462
1.66249
1.66035
1.65822
1.65609
1.65396
1.65183
1.64971
1.64758
1.64545
1.64333
1.64121
1.63908
1.63696
1.63484
1.63272
1.6306
1.62848
1.62636
1.62424
1.62212
1.62
1.61788
1.61576
1.61364
1.61152
1.6094
1.60728
1.60516
1.60303
1.60091
1.59879
1.59666
1.59454
1.59241
1.59029
1.58816
1.58603
1.5839
1.58177
1.57964
1.57751
1.57537
1.57324
1.5711
1.56897
1.56683
1.56469
1.56255
1.5604
1.55826
1.55611
1.55397
1.55182
1.54967
1.54751
1.54536
1.54321
1.54105
1.53889
1.53673
1.53457
1.5324
1.53024
1.52807
1.5259
1.52373
1.52156
1.51938
1.5172
1.51503
1.51284
1.51066
1.50848
1.50629
1.5041
1.50191
1.49972
1.49753
1.49533
1.49314
1.49094
1.48874
1.48653
1.48433
1.48212
1.47991
1.4777
1.47549
1.47328
1.47106
1.46885
1.46663
1.46441
1.46218
1.45996
1.45773
1.45551
1.45328
1.45104
1.44881
1.44658
1.44434
1.4421
1.43986
1.43762
1.43537
1.43313
1.43088
1.42863
1.42638
1.42412
1.42186
1.41961
1.41735
1.41508
1.41282
1.41055
1.40828
1.40601
1.40373
1.40145
1.39917
1.39689
1.3946
1.39231
1.39002
1.38772
1.38542
1.38312
1.38081
1.3785
1.37619
1.37387
1.37154
1.36922
1.36689
1.36455
1.36221
1.35986
1.35751
1.35516
1.3528
1.35043
1.34806
1.34568
1.3433
1.34091
1.33851
1.33611
1.3337
1.33129
1.32886
1.32643
1.324
1.32155
1.3191
1.31664
1.31418
1.3117
1.30922
1.30673
1.30423
1.30172
1.2992
1.29668
1.29414
1.2916
1.28905
1.28649
1.28391
1.28133
1.27874
1.27614
1.27353
1.27091
1.26828
1.26564
1.26299
1.26033
1.25766
1.25498
1.25229
1.24959
1.24688
1.24416
1.24143
1.23868
1.23593
1.23317
1.23039
1.2276
1.22481
1.222
1.21918
1.21635
1.21352
1.21066
1.2078
1.20493
1.20205
1.19915
1.19625
1.19333
1.1904
1.18746
1.18451
1.18155
1.17857
1.17559
1.17259
1.16958
1.16656
1.16353
1.16049
1.15743
1.15437
1.15129
1.1482
1.1451
1.14198
1.13886
1.13572
1.13257
1.1294
1.12623
1.12304
1.11984
1.11663
1.11341
1.11017
1.10692
1.10366
1.10039
1.0971
1.0938
1.09049
1.08717
1.08383
1.08048
1.07712
1.07374
1.07035
1.06695
1.06354
1.06011
1.05667
1.05321
1.04974
1.04626
1.04277
1.03926
1.03574
1.0322
1.02865
1.02509
1.02151
1.01792
1.01432
1.0107
1.00707
1.00342
0.999765
0.996091
0.992403
0.988701
0.984985
0.981254
0.977509
0.973749
0.969975
0.966186
0.962383
0.958565
0.954733
0.950886
0.947024
0.943147
0.939255
0.935348
0.931426
0.927489
0.923537
0.919569
0.915586
0.911588
0.907575
0.903546
0.899502
0.895442
0.891366
0.887275
0.883168
0.879045
0.874906
0.870751
0.86658
0.862394
0.858191
0.853972
0.849736
0.845485
0.841217
0.836932
0.832631
0.828314
0.823979
0.819629
0.815261
0.810876
0.806475
0.802057
0.797622
0.793169
0.7887
0.784213
0.779709
0.775188
0.770649
0.766093
0.761519
0.756927
0.752318
0.747691
0.743047
0.738384
0.733704
0.729005
0.724288
0.719554
0.714801
0.710029
0.705239
0.700431
0.695605
0.690759
0.685895
0.681013
0.676111
0.671191
0.666252
0.661293
0.656316
0.651319
0.646303
0.641268
0.636214
0.63114
0.626046
0.620933
0.6158
0.610647
0.605475
0.600282
0.59507
0.589838
0.584585
0.579312
0.574019
0.568705
0.563371
0.558017
0.552642
0.547246
0.541829
0.536391
0.530933
0.525453
0.519953
0.514431
0.508888
0.503324
0.497738
0.49213
0.486502
0.480851
0.475178
0.469484
0.463768
0.45803
0.45227
0.446487
0.440682
0.434855
0.429006
0.423134
0.417239
0.411322
0.405381
0.399418
0.393432
0.387423
0.381391
0.375336
0.369257
0.363155
0.357029
0.35088
0.344707
0.33851
0.332289
0.326045
0.319776
0.313484
0.307167
0.300825
0.29446
0.288069
0.281654
0.275215
0.26875
0.262261
0.255747
0.249208
0.242643
0.236053
0.229438
0.222797
0.216131
0.209439
0.202721
0.195978
0.189208
0.182413
0.175591
0.168743
0.161868
0.154967
0.14804
0.141086
0.134105
0.127097
0.120062
0.113
0.105911
0.0987945
0.0916506
0.0844793
0.0772803
0.0700536
0.0627991
0.0555166
0.048206
0.0408674
0.0335004
0.0261051
0.0186813
0.0112289
0.00374777
1.96639
1.96642
1.9664
1.9663
1.96615
1.96594
1.96566
1.96533
1.96493
1.96448
1.96396
1.96338
1.96273
1.96203
1.96126
1.96044
1.95955
1.95861
1.9576
1.95654
1.95542
1.95424
1.953
1.95171
1.95037
1.94897
1.94752
1.94602
1.94447
1.94287
1.94122
1.93953
1.93779
1.93601
1.93418
1.93232
1.93041
1.92847
1.92649
1.92448
1.92243
1.92035
1.91824
1.9161
1.91393
1.91174
1.90952
1.90728
1.90501
1.90272
1.90041
1.89809
1.89574
1.89338
1.891
1.88861
1.88621
1.88379
1.88136
1.87892
1.87648
1.87402
1.87156
1.86909
1.86661
1.86413
1.86164
1.85916
1.85666
1.85417
1.85168
1.84918
1.84668
1.84419
1.84169
1.8392
1.83671
1.83422
1.83173
1.82924
1.82676
1.82428
1.82181
1.81934
1.81688
1.81442
1.81196
1.80951
1.80707
1.80463
1.80219
1.79977
1.79734
1.79493
1.79252
1.79012
1.78772
1.78533
1.78295
1.78057
1.7782
1.77584
1.77348
1.77113
1.76879
1.76645
1.76412
1.76179
1.75948
1.75716
1.75486
1.75256
1.75027
1.74798
1.7457
1.74342
1.74116
1.73889
1.73663
1.73438
1.73214
1.72989
1.72766
1.72543
1.7232
1.72098
1.71876
1.71655
1.71434
1.71214
1.70994
1.70775
1.70556
1.70337
1.70119
1.69901
1.69683
1.69466
1.69249
1.69033
1.68817
1.68601
1.68385
1.6817
1.67954
1.6774
1.67525
1.67311
1.67096
1.66882
1.66669
1.66455
1.66241
1.66028
1.65815
1.65602
1.65389
1.65177
1.64964
1.64751
1.64539
1.64327
1.64115
1.63902
1.6369
1.63478
1.63266
1.63054
1.62842
1.6263
1.62419
1.62207
1.61995
1.61783
1.61571
1.61359
1.61147
1.60935
1.60723
1.60511
1.60299
1.60087
1.59874
1.59662
1.5945
1.59237
1.59025
1.58812
1.58599
1.58386
1.58173
1.5796
1.57747
1.57534
1.5732
1.57107
1.56893
1.56679
1.56465
1.56251
1.56037
1.55823
1.55608
1.55393
1.55179
1.54964
1.54748
1.54533
1.54318
1.54102
1.53886
1.5367
1.53454
1.53238
1.53021
1.52804
1.52587
1.5237
1.52153
1.51936
1.51718
1.515
1.51282
1.51064
1.50845
1.50627
1.50408
1.50189
1.4997
1.49751
1.49531
1.49312
1.49092
1.48872
1.48651
1.48431
1.4821
1.47989
1.47768
1.47547
1.47326
1.47104
1.46883
1.46661
1.46439
1.46217
1.45994
1.45772
1.45549
1.45326
1.45103
1.44879
1.44656
1.44432
1.44208
1.43984
1.4376
1.43536
1.43311
1.43086
1.42861
1.42636
1.42411
1.42185
1.41959
1.41733
1.41507
1.4128
1.41054
1.40827
1.40599
1.40372
1.40144
1.39916
1.39688
1.39459
1.3923
1.39001
1.38771
1.38541
1.38311
1.3808
1.37849
1.37618
1.37386
1.37154
1.36921
1.36688
1.36454
1.3622
1.35986
1.35751
1.35515
1.35279
1.35042
1.34805
1.34568
1.34329
1.3409
1.33851
1.33611
1.3337
1.33128
1.32886
1.32643
1.324
1.32155
1.3191
1.31664
1.31418
1.3117
1.30922
1.30673
1.30423
1.30172
1.2992
1.29668
1.29414
1.2916
1.28905
1.28649
1.28391
1.28133
1.27874
1.27614
1.27353
1.27091
1.26828
1.26564
1.26299
1.26033
1.25766
1.25498
1.25229
1.24959
1.24688
1.24416
1.24143
1.23868
1.23593
1.23317
1.23039
1.2276
1.22481
1.222
1.21918
1.21635
1.21352
1.21066
1.2078
1.20493
1.20205
1.19915
1.19625
1.19333
1.1904
1.18746
1.18451
1.18155
1.17857
1.17559
1.17259
1.16958
1.16656
1.16353
1.16049
1.15743
1.15437
1.15129
1.1482
1.1451
1.14198
1.13886
1.13572
1.13257
1.1294
1.12623
1.12304
1.11984
1.11663
1.11341
1.11017
1.10692
1.10366
1.10039
1.0971
1.0938
1.09049
1.08717
1.08383
1.08048
1.07712
1.07374
1.07035
1.06695
1.06354
1.06011
1.05667
1.05321
1.04974
1.04626
1.04277
1.03926
1.03574
1.0322
1.02865
1.02509
1.02151
1.01792
1.01432
1.0107
1.00707
1.00342
0.999765
0.996091
0.992403
0.988701
0.984985
0.981254
0.977509
0.973749
0.969975
0.966186
0.962383
0.958565
0.954733
0.950886
0.947024
0.943147
0.939255
0.935348
0.931426
0.927489
0.923537
0.919569
0.915586
0.911588
0.907575
0.903546
0.899502
0.895442
0.891366
0.887275
0.883168
0.879045
0.874906
0.870751
0.86658
0.862394
0.858191
0.853972
0.849736
0.845485
0.841217
0.836932
0.832631
0.828314
0.823979
0.819629
0.815261
0.810876
0.806475
0.802057
0.797622
0.793169
0.7887
0.784213
0.779709
0.775188
0.770649
0.766093
0.761519
0.756927
0.752318
0.747691
0.743047
0.738384
0.733704
0.729005
0.724288
0.719554
0.714801
0.710029
0.705239
0.700431
0.695605
0.690759
0.685895
0.681013
0.676111
0.671191
0.666252
0.661293
0.656316
0.651319
0.646303
0.641268
0.636214
0.63114
0.626046
0.620933
0.6158
0.610647
0.605475
0.600282
0.59507
0.589838
0.584585
0.579312
0.574019
0.568705
0.563371
0.558017
0.552642
0.547246
0.541829
0.536391
0.530933
0.525453
0.519953
0.514431
0.508888
0.503324
0.497738
0.49213
0.486502
0.480851
0.475178
0.469484
0.463768
0.45803
0.45227
0.446487
0.440682
0.434855
0.429006
0.423134
0.417239
0.411322
0.405381
0.399418
0.393432
0.387423
0.381391
0.375336
0.369257
0.363155
0.357029
0.35088
0.344707
0.33851
0.332289
0.326045
0.319776
0.313484
0.307167
0.300825
0.29446
0.288069
0.281654
0.275215
0.26875
0.262261
0.255747
0.249208
0.242643
0.236053
0.229438
0.222797
0.216131
0.209439
0.202721
0.195978
0.189208
0.182413
0.175591
0.168743
0.161868
0.154967
0.14804
0.141086
0.134105
0.127097
0.120062
0.113
0.105911
0.0987945
0.0916506
0.0844793
0.0772803
0.0700536
0.0627991
0.0555166
0.048206
0.0408674
0.0335004
0.0261051
0.0186813
0.0112289
0.00374776
1.968
1.96803
1.96801
1.96791
1.96775
1.96753
1.96724
1.9669
1.96648
1.96601
1.96547
1.96486
1.9642
1.96347
1.96267
1.96181
1.9609
1.95991
1.95887
1.95777
1.95661
1.95539
1.95412
1.95278
1.9514
1.94995
1.94846
1.94691
1.94532
1.94367
1.94198
1.94024
1.93846
1.93663
1.93476
1.93286
1.93091
1.92893
1.92691
1.92485
1.92277
1.92065
1.9185
1.91633
1.91412
1.9119
1.90964
1.90737
1.90507
1.90275
1.90042
1.89806
1.89569
1.89331
1.89091
1.88849
1.88607
1.88363
1.88118
1.87873
1.87626
1.87379
1.87131
1.86883
1.86634
1.86385
1.86135
1.85886
1.85636
1.85385
1.85135
1.84885
1.84635
1.84385
1.84135
1.83885
1.83635
1.83386
1.83137
1.82888
1.8264
1.82392
1.82144
1.81898
1.81651
1.81405
1.8116
1.80915
1.8067
1.80427
1.80183
1.79941
1.79699
1.79458
1.79217
1.78977
1.78738
1.78499
1.78261
1.78024
1.77787
1.77551
1.77316
1.77081
1.76847
1.76614
1.76381
1.76149
1.75918
1.75687
1.75457
1.75228
1.74999
1.7477
1.74543
1.74316
1.74089
1.73863
1.73638
1.73413
1.73189
1.72965
1.72742
1.72519
1.72297
1.72075
1.71854
1.71633
1.71413
1.71193
1.70974
1.70754
1.70536
1.70317
1.701
1.69882
1.69665
1.69448
1.69231
1.69015
1.68799
1.68584
1.68368
1.68153
1.67938
1.67724
1.67509
1.67295
1.67081
1.66868
1.66654
1.66441
1.66228
1.66015
1.65802
1.65589
1.65376
1.65164
1.64951
1.64739
1.64527
1.64315
1.64103
1.63891
1.63679
1.63467
1.63255
1.63044
1.62832
1.6262
1.62408
1.62197
1.61985
1.61773
1.61562
1.6135
1.61138
1.60926
1.60714
1.60502
1.6029
1.60078
1.59866
1.59654
1.59442
1.59229
1.59017
1.58804
1.58592
1.58379
1.58166
1.57953
1.5774
1.57527
1.57314
1.571
1.56887
1.56673
1.56459
1.56245
1.56031
1.55817
1.55602
1.55388
1.55173
1.54958
1.54743
1.54528
1.54312
1.54097
1.53881
1.53665
1.53449
1.53232
1.53016
1.52799
1.52582
1.52365
1.52148
1.51931
1.51713
1.51495
1.51278
1.51059
1.50841
1.50623
1.50404
1.50185
1.49966
1.49747
1.49527
1.49307
1.49088
1.48868
1.48647
1.48427
1.48206
1.47986
1.47765
1.47544
1.47322
1.47101
1.46879
1.46657
1.46435
1.46213
1.45991
1.45768
1.45545
1.45323
1.45099
1.44876
1.44653
1.44429
1.44205
1.43981
1.43757
1.43533
1.43308
1.43083
1.42859
1.42633
1.42408
1.42182
1.41957
1.41731
1.41504
1.41278
1.41051
1.40824
1.40597
1.4037
1.40142
1.39914
1.39686
1.39457
1.39228
1.38999
1.38769
1.38539
1.38309
1.38078
1.37847
1.37616
1.37384
1.37152
1.3692
1.36686
1.36453
1.36219
1.35984
1.35749
1.35514
1.35278
1.35041
1.34804
1.34567
1.34328
1.34089
1.3385
1.3361
1.33369
1.33128
1.32885
1.32643
1.32399
1.32155
1.3191
1.31664
1.31417
1.3117
1.30921
1.30672
1.30423
1.30172
1.2992
1.29668
1.29414
1.2916
1.28905
1.28648
1.28391
1.28133
1.27874
1.27614
1.27353
1.27091
1.26828
1.26564
1.26299
1.26033
1.25766
1.25498
1.25229
1.24959
1.24688
1.24416
1.24143
1.23868
1.23593
1.23317
1.23039
1.22761
1.22481
1.222
1.21918
1.21635
1.21352
1.21066
1.2078
1.20493
1.20205
1.19915
1.19625
1.19333
1.1904
1.18746
1.18451
1.18155
1.17857
1.17559
1.17259
1.16958
1.16656
1.16353
1.16049
1.15743
1.15437
1.15129
1.1482
1.1451
1.14198
1.13886
1.13572
1.13257
1.1294
1.12623
1.12304
1.11984
1.11663
1.11341
1.11017
1.10692
1.10366
1.10039
1.0971
1.0938
1.09049
1.08717
1.08383
1.08048
1.07712
1.07374
1.07035
1.06695
1.06354
1.06011
1.05667
1.05321
1.04974
1.04626
1.04277
1.03926
1.03574
1.0322
1.02865
1.02509
1.02151
1.01792
1.01432
1.0107
1.00707
1.00342
0.999765
0.996091
0.992403
0.988701
0.984985
0.981254
0.977509
0.973749
0.969975
0.966186
0.962383
0.958565
0.954733
0.950886
0.947024
0.943147
0.939255
0.935348
0.931426
0.927489
0.923537
0.919569
0.915586
0.911588
0.907575
0.903546
0.899502
0.895442
0.891366
0.887275
0.883168
0.879045
0.874906
0.870751
0.86658
0.862394
0.858191
0.853972
0.849736
0.845485
0.841217
0.836932
0.832631
0.828314
0.823979
0.819629
0.815261
0.810876
0.806475
0.802057
0.797622
0.793169
0.7887
0.784213
0.779709
0.775188
0.770649
0.766093
0.761519
0.756927
0.752318
0.747691
0.743047
0.738384
0.733704
0.729005
0.724288
0.719554
0.714801
0.710029
0.705239
0.700431
0.695605
0.690759
0.685895
0.681013
0.676111
0.671191
0.666252
0.661293
0.656316
0.651319
0.646303
0.641268
0.636214
0.63114
0.626046
0.620933
0.6158
0.610647
0.605475
0.600282
0.59507
0.589838
0.584585
0.579312
0.574019
0.568705
0.563371
0.558017
0.552642
0.547246
0.541829
0.536391
0.530933
0.525453
0.519953
0.514431
0.508888
0.503324
0.497738
0.49213
0.486502
0.480851
0.475178
0.469484
0.463768
0.45803
0.45227
0.446487
0.440682
0.434855
0.429006
0.423134
0.417239
0.411322
0.405381
0.399418
0.393432
0.387423
0.381391
0.375336
0.369257
0.363155
0.357029
0.35088
0.344707
0.33851
0.332289
0.326045
0.319776
0.313484
0.307167
0.300825
0.29446
0.288069
0.281654
0.275215
0.26875
0.262261
0.255747
0.249208
0.242643
0.236053
0.229438
0.222797
0.216131
0.209439
0.202721
0.195978
0.189208
0.182413
0.175591
0.168743
0.161868
0.154967
0.14804
0.141086
0.134105
0.127097
0.120062
0.113
0.105911
0.0987945
0.0916506
0.0844793
0.0772803
0.0700536
0.0627991
0.0555166
0.048206
0.0408674
0.0335004
0.0261051
0.0186813
0.0112289
0.00374776
1.97031
1.97034
1.97032
1.97022
1.97005
1.96981
1.96951
1.96914
1.96871
1.9682
1.96763
1.96699
1.96629
1.96552
1.96468
1.96378
1.96281
1.96178
1.96068
1.95953
1.95831
1.95703
1.95569
1.9543
1.95285
1.95134
1.94978
1.94817
1.94651
1.9448
1.94305
1.94124
1.9394
1.93751
1.93558
1.93361
1.9316
1.92956
1.92748
1.92537
1.92323
1.92105
1.91885
1.91663
1.91437
1.9121
1.9098
1.90748
1.90514
1.90278
1.9004
1.89801
1.89561
1.89319
1.89075
1.88831
1.88585
1.88339
1.88092
1.87844
1.87595
1.87346
1.87096
1.86846
1.86595
1.86344
1.86093
1.85842
1.85591
1.8534
1.85088
1.84837
1.84586
1.84335
1.84085
1.83834
1.83584
1.83334
1.83085
1.82836
1.82588
1.8234
1.82092
1.81845
1.81599
1.81353
1.81108
1.80863
1.80619
1.80375
1.80132
1.7989
1.79649
1.79408
1.79168
1.78928
1.78689
1.78451
1.78214
1.77977
1.77741
1.77505
1.77271
1.77036
1.76803
1.7657
1.76338
1.76107
1.75876
1.75646
1.75416
1.75187
1.74959
1.74732
1.74504
1.74278
1.74052
1.73827
1.73602
1.73378
1.73154
1.72931
1.72708
1.72486
1.72265
1.72044
1.71823
1.71603
1.71383
1.71163
1.70944
1.70726
1.70508
1.7029
1.70073
1.69855
1.69639
1.69422
1.69206
1.68991
1.68775
1.6856
1.68345
1.6813
1.67916
1.67702
1.67488
1.67274
1.6706
1.66847
1.66634
1.66421
1.66208
1.65996
1.65783
1.65571
1.65358
1.65146
1.64934
1.64722
1.6451
1.64299
1.64087
1.63875
1.63663
1.63452
1.6324
1.63029
1.62817
1.62606
1.62394
1.62183
1.61971
1.6176
1.61548
1.61337
1.61125
1.60914
1.60702
1.6049
1.60279
1.60067
1.59855
1.59643
1.59431
1.59218
1.59006
1.58794
1.58581
1.58369
1.58156
1.57943
1.5773
1.57517
1.57304
1.57091
1.56878
1.56664
1.5645
1.56236
1.56022
1.55808
1.55594
1.55379
1.55165
1.5495
1.54735
1.5452
1.54305
1.54089
1.53873
1.53658
1.53442
1.53225
1.53009
1.52792
1.52576
1.52359
1.52142
1.51924
1.51707
1.51489
1.51271
1.51053
1.50835
1.50617
1.50398
1.50179
1.4996
1.49741
1.49521
1.49302
1.49082
1.48862
1.48642
1.48422
1.48201
1.47981
1.4776
1.47539
1.47317
1.47096
1.46874
1.46653
1.46431
1.46208
1.45986
1.45764
1.45541
1.45318
1.45095
1.44872
1.44648
1.44425
1.44201
1.43977
1.43753
1.43529
1.43304
1.4308
1.42855
1.4263
1.42404
1.42179
1.41953
1.41727
1.41501
1.41275
1.41048
1.40821
1.40594
1.40367
1.40139
1.39911
1.39683
1.39454
1.39225
1.38996
1.38767
1.38537
1.38307
1.38076
1.37845
1.37614
1.37382
1.3715
1.36918
1.36685
1.36451
1.36217
1.35983
1.35748
1.35513
1.35277
1.3504
1.34803
1.34565
1.34327
1.34088
1.33849
1.33609
1.33368
1.33127
1.32885
1.32642
1.32398
1.32154
1.31909
1.31663
1.31417
1.31169
1.30921
1.30672
1.30422
1.30171
1.2992
1.29667
1.29414
1.2916
1.28904
1.28648
1.28391
1.28133
1.27874
1.27614
1.27353
1.27091
1.26828
1.26564
1.26299
1.26033
1.25766
1.25498
1.25229
1.24959
1.24688
1.24416
1.24143
1.23868
1.23593
1.23317
1.23039
1.22761
1.22481
1.222
1.21918
1.21635
1.21352
1.21066
1.2078
1.20493
1.20205
1.19915
1.19625
1.19333
1.1904
1.18746
1.18451
1.18155
1.17857
1.17559
1.17259
1.16958
1.16656
1.16353
1.16049
1.15743
1.15437
1.15129
1.1482
1.1451
1.14198
1.13886
1.13572
1.13257
1.1294
1.12623
1.12304
1.11984
1.11663
1.11341
1.11017
1.10692
1.10366
1.10039
1.0971
1.0938
1.09049
1.08717
1.08383
1.08048
1.07712
1.07374
1.07035
1.06695
1.06354
1.06011
1.05667
1.05321
1.04974
1.04626
1.04277
1.03926
1.03574
1.0322
1.02865
1.02509
1.02151
1.01792
1.01432
1.0107
1.00707
1.00342
0.999765
0.996091
0.992403
0.988701
0.984985
0.981254
0.977509
0.973749
0.969975
0.966186
0.962383
0.958565
0.954733
0.950886
0.947024
0.943147
0.939255
0.935348
0.931426
0.927489
0.923537
0.919569
0.915586
0.911588
0.907575
0.903546
0.899502
0.895442
0.891366
0.887275
0.883168
0.879045
0.874906
0.870751
0.86658
0.862394
0.858191
0.853972
0.849736
0.845485
0.841217
0.836932
0.832631
0.828314
0.823979
0.819629
0.815261
0.810876
0.806475
0.802057
0.797622
0.793169
0.7887
0.784213
0.779709
0.775188
0.770649
0.766093
0.761519
0.756927
0.752318
0.747691
0.743047
0.738384
0.733704
0.729005
0.724288
0.719554
0.714801
0.710029
0.705239
0.700431
0.695605
0.690759
0.685895
0.681013
0.676111
0.671191
0.666252
0.661293
0.656316
0.651319
0.646303
0.641268
0.636214
0.63114
0.626046
0.620933
0.6158
0.610647
0.605475
0.600282
0.59507
0.589838
0.584585
0.579312
0.574019
0.568705
0.563371
0.558017
0.552642
0.547246
0.541829
0.536391
0.530933
0.525453
0.519953
0.514431
0.508888
0.503324
0.497738
0.49213
0.486502
0.480851
0.475178
0.469484
0.463768
0.45803
0.45227
0.446487
0.440682
0.434855
0.429006
0.423134
0.417239
0.411322
0.405381
0.399418
0.393432
0.387423
0.381391
0.375336
0.369257
0.363155
0.357029
0.35088
0.344707
0.33851
0.332289
0.326045
0.319776
0.313484
0.307167
0.300825
0.29446
0.288069
0.281654
0.275215
0.26875
0.262261
0.255747
0.249208
0.242643
0.236053
0.229438
0.222797
0.216131
0.209439
0.202721
0.195978
0.189208
0.182413
0.175591
0.168743
0.161868
0.154967
0.14804
0.141086
0.134105
0.127097
0.120062
0.113
0.105911
0.0987945
0.0916506
0.0844793
0.0772803
0.0700536
0.0627991
0.0555166
0.048206
0.0408674
0.0335004
0.0261051
0.0186813
0.0112289
0.00374776
1.97327
1.97331
1.97328
1.97317
1.97299
1.97274
1.97241
1.97202
1.97155
1.97101
1.9704
1.96972
1.96896
1.96814
1.96724
1.96628
1.96524
1.96415
1.96298
1.96175
1.96046
1.9591
1.95769
1.95621
1.95468
1.95309
1.95145
1.94975
1.94801
1.94621
1.94437
1.94249
1.94056
1.93859
1.93657
1.93453
1.93244
1.93032
1.92817
1.92598
1.92377
1.92153
1.91926
1.91697
1.91466
1.91232
1.90996
1.90759
1.90519
1.90278
1.90036
1.89792
1.89547
1.89301
1.89053
1.88805
1.88556
1.88306
1.88056
1.87805
1.87553
1.87301
1.87049
1.86797
1.86544
1.86291
1.86038
1.85786
1.85533
1.8528
1.85028
1.84776
1.84524
1.84272
1.84021
1.8377
1.83519
1.83269
1.83019
1.8277
1.82521
1.82273
1.82026
1.81779
1.81532
1.81287
1.81042
1.80797
1.80553
1.8031
1.80068
1.79826
1.79585
1.79345
1.79105
1.78866
1.78628
1.7839
1.78154
1.77917
1.77682
1.77447
1.77213
1.7698
1.76747
1.76515
1.76284
1.76053
1.75823
1.75594
1.75365
1.75137
1.7491
1.74683
1.74456
1.74231
1.74006
1.73781
1.73557
1.73334
1.73111
1.72888
1.72667
1.72445
1.72224
1.72004
1.71784
1.71564
1.71345
1.71126
1.70908
1.7069
1.70473
1.70256
1.70039
1.69822
1.69606
1.69391
1.69175
1.6896
1.68745
1.6853
1.68316
1.68102
1.67888
1.67674
1.67461
1.67248
1.67035
1.66822
1.66609
1.66397
1.66184
1.65972
1.6576
1.65548
1.65336
1.65124
1.64913
1.64701
1.6449
1.64278
1.64067
1.63856
1.63644
1.63433
1.63222
1.63011
1.628
1.62588
1.62377
1.62166
1.61955
1.61744
1.61533
1.61321
1.6111
1.60899
1.60687
1.60476
1.60264
1.60053
1.59841
1.59629
1.59417
1.59205
1.58993
1.58781
1.58569
1.58357
1.58144
1.57931
1.57719
1.57506
1.57293
1.5708
1.56867
1.56653
1.5644
1.56226
1.56012
1.55798
1.55584
1.5537
1.55155
1.5494
1.54726
1.54511
1.54295
1.5408
1.53865
1.53649
1.53433
1.53217
1.53001
1.52784
1.52568
1.52351
1.52134
1.51917
1.51699
1.51482
1.51264
1.51046
1.50828
1.50609
1.50391
1.50172
1.49953
1.49734
1.49515
1.49295
1.49076
1.48856
1.48636
1.48415
1.48195
1.47974
1.47753
1.47533
1.47311
1.4709
1.46868
1.46647
1.46425
1.46203
1.45981
1.45758
1.45536
1.45313
1.4509
1.44867
1.44643
1.4442
1.44196
1.43972
1.43748
1.43524
1.433
1.43075
1.4285
1.42625
1.424
1.42175
1.41949
1.41723
1.41497
1.41271
1.41044
1.40817
1.4059
1.40363
1.40135
1.39908
1.39679
1.39451
1.39222
1.38993
1.38764
1.38534
1.38304
1.38074
1.37843
1.37611
1.3738
1.37148
1.36915
1.36682
1.36449
1.36215
1.35981
1.35746
1.35511
1.35275
1.35039
1.34802
1.34564
1.34326
1.34087
1.33848
1.33608
1.33367
1.33126
1.32884
1.32641
1.32397
1.32153
1.31908
1.31663
1.31416
1.31169
1.30921
1.30672
1.30422
1.30171
1.2992
1.29667
1.29414
1.29159
1.28904
1.28648
1.28391
1.28133
1.27874
1.27614
1.27353
1.27091
1.26828
1.26564
1.26299
1.26033
1.25766
1.25498
1.25229
1.24959
1.24688
1.24416
1.24143
1.23868
1.23593
1.23317
1.23039
1.22761
1.22481
1.222
1.21918
1.21635
1.21352
1.21066
1.2078
1.20493
1.20205
1.19915
1.19625
1.19333
1.1904
1.18746
1.18451
1.18155
1.17857
1.17559
1.17259
1.16958
1.16656
1.16353
1.16049
1.15743
1.15437
1.15129
1.1482
1.1451
1.14198
1.13886
1.13572
1.13257
1.1294
1.12623
1.12304
1.11984
1.11663
1.11341
1.11017
1.10692
1.10366
1.10039
1.0971
1.0938
1.09049
1.08717
1.08383
1.08048
1.07712
1.07374
1.07035
1.06695
1.06354
1.06011
1.05667
1.05321
1.04974
1.04626
1.04277
1.03926
1.03574
1.0322
1.02865
1.02509
1.02151
1.01792
1.01432
1.0107
1.00707
1.00342
0.999765
0.996091
0.992403
0.988701
0.984985
0.981254
0.977509
0.973749
0.969975
0.966186
0.962383
0.958565
0.954733
0.950886
0.947024
0.943147
0.939255
0.935348
0.931426
0.927489
0.923537
0.919569
0.915586
0.911588
0.907575
0.903546
0.899502
0.895442
0.891366
0.887275
0.883168
0.879045
0.874906
0.870751
0.86658
0.862394
0.858191
0.853972
0.849736
0.845485
0.841217
0.836932
0.832631
0.828314
0.823979
0.819629
0.815261
0.810876
0.806475
0.802057
0.797622
0.793169
0.7887
0.784213
0.779709
0.775188
0.770649
0.766093
0.761519
0.756927
0.752318
0.747691
0.743047
0.738384
0.733704
0.729005
0.724288
0.719554
0.714801
0.710029
0.705239
0.700431
0.695605
0.690759
0.685895
0.681013
0.676111
0.671191
0.666252
0.661293
0.656316
0.651319
0.646303
0.641268
0.636214
0.63114
0.626046
0.620933
0.6158
0.610647
0.605475
0.600282
0.59507
0.589838
0.584585
0.579312
0.574019
0.568705
0.563371
0.558017
0.552642
0.547246
0.541829
0.536391
0.530933
0.525453
0.519953
0.514431
0.508888
0.503324
0.497738
0.49213
0.486502
0.480851
0.475178
0.469484
0.463768
0.45803
0.45227
0.446487
0.440682
0.434855
0.429006
0.423134
0.417239
0.411322
0.405381
0.399418
0.393432
0.387423
0.381391
0.375336
0.369257
0.363155
0.357029
0.35088
0.344707
0.33851
0.332289
0.326045
0.319776
0.313484
0.307167
0.300825
0.29446
0.288069
0.281654
0.275215
0.26875
0.262261
0.255747
0.249208
0.242643
0.236053
0.229438
0.222797
0.216131
0.209439
0.202721
0.195978
0.189208
0.182413
0.175591
0.168743
0.161868
0.154967
0.14804
0.141086
0.134105
0.127097
0.120062
0.113
0.105911
0.0987945
0.0916506
0.0844793
0.0772803
0.0700536
0.0627991
0.0555166
0.048206
0.0408674
0.0335004
0.0261051
0.0186813
0.0112289
0.00374776
1.97685
1.97689
1.97686
1.97675
1.97655
1.97627
1.97592
1.97549
1.97498
1.9744
1.97373
1.97299
1.97217
1.97128
1.97031
1.96927
1.96816
1.96698
1.96572
1.9644
1.96301
1.96156
1.96005
1.95847
1.95684
1.95515
1.9534
1.9516
1.94975
1.94786
1.94591
1.94393
1.9419
1.93983
1.93772
1.93557
1.93339
1.93118
1.92894
1.92667
1.92437
1.92205
1.9197
1.91733
1.91494
1.91253
1.91011
1.90767
1.90521
1.90274
1.90026
1.89777
1.89526
1.89275
1.89023
1.88771
1.88518
1.88264
1.8801
1.87755
1.87501
1.87246
1.86991
1.86736
1.86481
1.86226
1.85971
1.85717
1.85462
1.85208
1.84954
1.84701
1.84448
1.84195
1.83943
1.83691
1.8344
1.8319
1.8294
1.8269
1.82442
1.82194
1.81946
1.81699
1.81453
1.81208
1.80963
1.80719
1.80476
1.80233
1.79991
1.7975
1.7951
1.7927
1.79031
1.78793
1.78555
1.78319
1.78083
1.77847
1.77613
1.77379
1.77146
1.76913
1.76681
1.7645
1.7622
1.7599
1.75761
1.75533
1.75305
1.75078
1.74851
1.74626
1.744
1.74175
1.73951
1.73728
1.73505
1.73282
1.7306
1.72839
1.72618
1.72397
1.72177
1.71957
1.71738
1.7152
1.71301
1.71084
1.70866
1.70649
1.70432
1.70216
1.7
1.69784
1.69569
1.69354
1.69139
1.68924
1.6871
1.68496
1.68283
1.68069
1.67856
1.67643
1.6743
1.67217
1.67005
1.66793
1.66581
1.66369
1.66157
1.65945
1.65734
1.65522
1.65311
1.65099
1.64888
1.64677
1.64466
1.64255
1.64044
1.63833
1.63623
1.63412
1.63201
1.6299
1.62779
1.62569
1.62358
1.62147
1.61936
1.61725
1.61514
1.61303
1.61092
1.60881
1.6067
1.60459
1.60248
1.60037
1.59825
1.59614
1.59402
1.5919
1.58979
1.58767
1.58555
1.58343
1.5813
1.57918
1.57706
1.57493
1.5728
1.57067
1.56854
1.56641
1.56428
1.56214
1.56001
1.55787
1.55573
1.55359
1.55144
1.5493
1.54715
1.545
1.54285
1.5407
1.53855
1.53639
1.53423
1.53207
1.52991
1.52775
1.52559
1.52342
1.52125
1.51908
1.51691
1.51473
1.51255
1.51038
1.5082
1.50601
1.50383
1.50164
1.49945
1.49726
1.49507
1.49288
1.49068
1.48848
1.48628
1.48408
1.48188
1.47967
1.47747
1.47526
1.47305
1.47083
1.46862
1.4664
1.46419
1.46197
1.45974
1.45752
1.4553
1.45307
1.45084
1.44861
1.44638
1.44414
1.44191
1.43967
1.43743
1.43519
1.43295
1.4307
1.42845
1.4262
1.42395
1.4217
1.41944
1.41719
1.41493
1.41266
1.4104
1.40813
1.40586
1.40359
1.40132
1.39904
1.39676
1.39448
1.39219
1.3899
1.38761
1.38531
1.38301
1.38071
1.3784
1.37609
1.37377
1.37145
1.36913
1.3668
1.36447
1.36213
1.35979
1.35744
1.35509
1.35273
1.35037
1.348
1.34562
1.34324
1.34086
1.33846
1.33607
1.33366
1.33125
1.32883
1.3264
1.32397
1.32152
1.31908
1.31662
1.31415
1.31168
1.3092
1.30671
1.30421
1.30171
1.29919
1.29667
1.29413
1.29159
1.28904
1.28648
1.28391
1.28133
1.27874
1.27614
1.27353
1.27091
1.26828
1.26564
1.26299
1.26033
1.25766
1.25498
1.25229
1.24959
1.24688
1.24416
1.24143
1.23868
1.23593
1.23317
1.23039
1.22761
1.22481
1.222
1.21918
1.21636
1.21352
1.21066
1.2078
1.20493
1.20205
1.19915
1.19625
1.19333
1.1904
1.18746
1.18451
1.18155
1.17857
1.17559
1.17259
1.16958
1.16656
1.16353
1.16049
1.15743
1.15437
1.15129
1.1482
1.1451
1.14198
1.13886
1.13572
1.13257
1.1294
1.12623
1.12304
1.11984
1.11663
1.11341
1.11017
1.10692
1.10366
1.10039
1.0971
1.0938
1.09049
1.08717
1.08383
1.08048
1.07712
1.07374
1.07035
1.06695
1.06354
1.06011
1.05667
1.05321
1.04974
1.04626
1.04277
1.03926
1.03574
1.0322
1.02865
1.02509
1.02151
1.01792
1.01432
1.0107
1.00707
1.00342
0.999765
0.996091
0.992403
0.988701
0.984985
0.981254
0.977509
0.973749
0.969975
0.966186
0.962383
0.958565
0.954733
0.950886
0.947024
0.943147
0.939255
0.935348
0.931426
0.927489
0.923537
0.919569
0.915586
0.911588
0.907575
0.903546
0.899502
0.895442
0.891366
0.887275
0.883168
0.879045
0.874906
0.870751
0.86658
0.862394
0.858191
0.853972
0.849736
0.845485
0.841217
0.836932
0.832631
0.828314
0.823979
0.819629
0.815261
0.810876
0.806475
0.802057
0.797622
0.793169
0.7887
0.784213
0.779709
0.775188
0.770649
0.766093
0.761519
0.756927
0.752318
0.747691
0.743047
0.738384
0.733704
0.729005
0.724288
0.719554
0.714801
0.710029
0.705239
0.700431
0.695605
0.690759
0.685895
0.681013
0.676111
0.671191
0.666252
0.661293
0.656316
0.651319
0.646303
0.641268
0.636214
0.63114
0.626046
0.620933
0.6158
0.610647
0.605475
0.600282
0.59507
0.589838
0.584585
0.579312
0.574019
0.568705
0.563371
0.558017
0.552642
0.547246
0.541829
0.536391
0.530933
0.525453
0.519953
0.514431
0.508888
0.503324
0.497738
0.49213
0.486502
0.480851
0.475178
0.469484
0.463768
0.45803
0.45227
0.446487
0.440682
0.434855
0.429006
0.423134
0.417239
0.411322
0.405381
0.399418
0.393432
0.387423
0.381391
0.375336
0.369257
0.363155
0.357029
0.35088
0.344707
0.33851
0.332289
0.326045
0.319776
0.313484
0.307167
0.300825
0.29446
0.288069
0.281654
0.275215
0.26875
0.262261
0.255747
0.249208
0.242643
0.236053
0.229438