/*--------------------------------*- C++ -*----------------------------------*\
  =========                 |
  \\      /  F ield         | OpenFOAM: The Open Source CFD Toolbox
   \\    /   O peration     | Website:  https://openfoam.org
    \\  /    A nd           | Version:  7
     \\/     M anipulation  |
\*---------------------------------------------------------------------------*/
FoamFile
{
    version     2.0;
    format      ascii;
    class       surfaceScalarField;
    location    "3";
    object      phi;
}
// * * * * * * * * * * * * * * * * * * * * * * * * * * * * * * * * * * * * * //

dimensions      [0 3 -1 0 0 0 0];

internalField   nonuniform List<scalar> 
95320
(
0.00250152
-7.10058e-08
1.08068e-13
0.00250174
-2.14568e-07
5.6407e-14
0.0025021
-3.59899e-07
-9.09879e-14
0.0025026
-5.06712e-07
-1.72381e-13
0.00250326
-6.548e-07
-1.81406e-13
0.00250406
-8.03958e-07
-1.61023e-13
0.00250502
-9.53974e-07
-1.31741e-13
0.00250612
-1.10463e-06
-1.02812e-13
0.00250738
-1.2557e-06
-7.7923e-14
0.00250878
-1.40697e-06
-5.77877e-14
0.00251034
-1.55821e-06
-4.20259e-14
0.00251205
-1.70919e-06
-3.00308e-14
0.00251391
-1.85969e-06
-2.10719e-14
0.00251592
-2.00949e-06
-1.44393e-14
0.00251808
-2.15835e-06
-9.51806e-15
0.00252038
-2.30608e-06
-5.95009e-15
0.00252284
-2.45244e-06
-3.60471e-15
0.00252543
-2.59724e-06
-2.40428e-15
0.00252817
-2.74027e-06
-2.08331e-15
0.00253106
-2.88134e-06
-2.25705e-15
0.00253408
-3.02026e-06
-2.78822e-15
0.00253723
-3.15685e-06
-3.77631e-15
0.00254052
-3.29094e-06
-5.18321e-15
0.00254395
-3.42238e-06
-6.83141e-15
0.0025475
-3.55101e-06
-8.48004e-15
0.00255117
-3.6767e-06
-9.89552e-15
0.00255497
-3.79932e-06
-1.10463e-14
0.00255889
-3.91875e-06
-1.19816e-14
0.00256293
-4.03489e-06
-1.2722e-14
0.00256707
-4.14765e-06
-1.33223e-14
0.00257133
-4.25694e-06
-1.37909e-14
0.00257569
-4.36269e-06
-1.41808e-14
0.00258016
-4.46484e-06
-1.47034e-14
0.00258472
-4.56335e-06
-1.54687e-14
0.00258938
-4.65817e-06
-1.64512e-14
0.00259413
-4.74929e-06
-1.7715e-14
0.00259897
-4.83669e-06
-1.92847e-14
0.00260389
-4.92035e-06
-2.1016e-14
0.00260889
-5.00029e-06
-2.27575e-14
0.00261396
-5.07652e-06
-2.43867e-14
0.00261911
-5.14906e-06
-2.58383e-14
0.00262433
-5.21793e-06
-2.72392e-14
0.00262961
-5.28318e-06
-2.88006e-14
0.00263496
-5.34484e-06
-3.06566e-14
0.00264036
-5.40298e-06
-3.28845e-14
0.00264582
-5.45764e-06
-3.55016e-14
0.00265133
-5.50889e-06
-3.84214e-14
0.00265688
-5.5568e-06
-4.14924e-14
0.00266249
-5.60144e-06
-4.45087e-14
0.00266813
-5.64288e-06
-4.71811e-14
0.00267381
-5.68121e-06
-4.92159e-14
0.00267953
-5.7165e-06
-5.04167e-14
0.00268528
-5.74885e-06
-5.07033e-14
0.00269105
-5.77833e-06
-5.00991e-14
0.00269686
-5.80505e-06
-4.87246e-14
0.00270269
-5.82908e-06
-4.67924e-14
0.00270854
-5.85052e-06
-4.46496e-14
0.00271441
-5.86947e-06
-4.27871e-14
0.00272029
-5.88602e-06
-4.16928e-14
0.00272619
-5.90025e-06
-4.16322e-14
0.00273211
-5.91226e-06
-4.26489e-14
0.00273803
-5.92214e-06
-4.47279e-14
0.00274396
-5.92998e-06
-4.79458e-14
0.00274989
-5.93587e-06
-5.23791e-14
0.00275583
-5.93991e-06
-5.80284e-14
0.00276178
-5.94217e-06
-6.48199e-14
0.00276772
-5.94274e-06
-7.26042e-14
0.00277366
-5.94171e-06
-8.12179e-14
0.0027796
-5.93915e-06
-9.05802e-14
0.00278554
-5.93515e-06
-1.00705e-13
0.00279146
-5.92979e-06
-1.11552e-13
0.00279739
-5.92313e-06
-1.22913e-13
0.0028033
-5.91526e-06
-1.34405e-13
0.00280921
-5.90624e-06
-1.45666e-13
0.00281511
-5.89615e-06
-1.56497e-13
0.00282099
-5.88504e-06
-1.6686e-13
0.00282686
-5.87299e-06
-1.76793e-13
0.00283272
-5.86006e-06
-1.86389e-13
0.00283857
-5.8463e-06
-1.95927e-13
0.0028444
-5.83177e-06
-2.05797e-13
0.00285022
-5.81652e-06
-2.16334e-13
0.00285602
-5.80062e-06
-2.28106e-13
0.0028618
-5.7841e-06
-2.41327e-13
0.00286757
-5.76702e-06
-2.56017e-13
0.00287332
-5.74943e-06
-2.71969e-13
0.00287905
-5.73135e-06
-2.88855e-13
0.00288476
-5.71285e-06
-3.06417e-13
0.00289046
-5.69395e-06
-3.24558e-13
0.00289613
-5.67469e-06
-3.43255e-13
0.00290179
-5.65511e-06
-3.61961e-13
0.00290742
-5.63524e-06
-3.79841e-13
0.00291304
-5.61512e-06
-3.96933e-13
0.00291863
-5.59476e-06
-4.14118e-13
0.00292421
-5.5742e-06
-4.3225e-13
0.00292976
-5.55347e-06
-4.47966e-13
0.00293529
-5.53259e-06
-4.61572e-13
0.0029408
-5.51158e-06
-4.72597e-13
0.00294629
-5.49046e-06
-4.80445e-13
0.00295176
-5.46925e-06
-4.84632e-13
0.00295721
-5.44797e-06
-4.84989e-13
0.00296264
-5.42664e-06
-4.81791e-13
0.00296804
-5.40528e-06
-4.75625e-13
0.00297343
-5.38389e-06
-4.67344e-13
0.00297879
-5.36249e-06
-4.57957e-13
0.00298413
-5.34109e-06
-4.48499e-13
0.00298945
-5.3197e-06
-4.3986e-13
0.00299475
-5.29833e-06
-4.32585e-13
0.00300003
-5.277e-06
-4.26699e-13
0.00300528
-5.2557e-06
-4.21836e-13
0.00301052
-5.23445e-06
-4.17434e-13
0.00301573
-5.21325e-06
-4.12911e-13
0.00302092
-5.1921e-06
-4.07796e-13
0.00302609
-5.17102e-06
-4.01731e-13
0.00303124
-5.15e-06
-3.94429e-13
0.00303637
-5.12905e-06
-3.8565e-13
0.00304148
-5.10817e-06
-3.75198e-13
0.00304657
-5.08736e-06
-3.629e-13
0.00305163
-5.06663e-06
-3.4861e-13
0.00305668
-5.04597e-06
-3.32175e-13
0.00306171
-5.02538e-06
-3.13538e-13
0.00306671
-5.00487e-06
-2.92911e-13
0.00307169
-4.98443e-06
-2.70864e-13
0.00307666
-4.96407e-06
-2.48271e-13
0.0030816
-4.94378e-06
-2.26148e-13
0.00308653
-4.92356e-06
-2.05467e-13
0.00309143
-4.9034e-06
-1.87004e-13
0.00309631
-4.88332e-06
-1.71235e-13
0.00310118
-4.86329e-06
-1.58288e-13
0.00310602
-4.84333e-06
-1.47854e-13
0.00311084
-4.82343e-06
-1.3908e-13
0.00311565
-4.80359e-06
-1.30655e-13
0.00312043
-4.78379e-06
-1.21071e-13
0.00312519
-4.76405e-06
-1.09002e-13
0.00312994
-4.74436e-06
-9.36439e-14
0.00313466
-4.7247e-06
-7.4897e-14
0.00313937
-4.70509e-06
-5.33761e-14
0.00314405
-4.68552e-06
-3.01489e-14
0.00314872
-4.66598e-06
-6.42628e-15
0.00315337
-4.64646e-06
1.66575e-14
0.00315799
-4.62698e-06
3.81983e-14
0.0031626
-4.60751e-06
5.75214e-14
0.00316719
-4.58807e-06
7.40529e-14
0.00317176
-4.56864e-06
8.71696e-14
0.00317631
-4.54922e-06
9.62284e-14
0.00318084
-4.52981e-06
1.00713e-13
0.00318535
-4.51041e-06
1.00424e-13
0.00318984
-4.49101e-06
9.5687e-14
0.00319431
-4.47161e-06
8.74143e-14
0.00319876
-4.4522e-06
7.70062e-14
0.00320319
-4.43279e-06
6.61627e-14
0.00320761
-4.41336e-06
5.66229e-14
0.003212
-4.39392e-06
4.98758e-14
0.00321638
-4.37447e-06
4.67761e-14
0.00322073
-4.355e-06
4.73597e-14
0.00322507
-4.3355e-06
5.09035e-14
0.00322938
-4.31598e-06
5.60272e-14
0.00323368
-4.29643e-06
6.0959e-14
0.00323796
-4.27685e-06
6.38836e-14
0.00324221
-4.25724e-06
6.33068e-14
0.00324645
-4.2376e-06
5.83129e-14
0.00325067
-4.21792e-06
4.86128e-14
0.00325487
-4.1982e-06
3.44093e-14
0.00325905
-4.17844e-06
1.6141e-14
0.0032632
-4.15864e-06
-5.6337e-15
0.00326734
-4.13879e-06
-3.02499e-14
0.00327146
-4.1189e-06
-5.6915e-14
0.00327556
-4.09896e-06
-8.47682e-14
0.00327964
-4.07897e-06
-1.1296e-13
0.0032837
-4.05893e-06
-1.40814e-13
0.00328774
-4.03884e-06
-1.67864e-13
0.00329176
-4.0187e-06
-1.93881e-13
0.00329576
-3.9985e-06
-2.18768e-13
0.00329973
-3.97824e-06
-2.42525e-13
0.00330369
-3.95792e-06
-2.65358e-13
0.00330763
-3.93755e-06
-2.87789e-13
0.00331155
-3.91711e-06
-3.10635e-13
0.00331544
-3.89662e-06
-3.35293e-13
0.00331932
-3.87606e-06
-3.63298e-13
0.00332317
-3.85544e-06
-3.95619e-13
0.00332701
-3.83475e-06
-4.32088e-13
0.00333082
-3.814e-06
-4.71158e-13
0.00333462
-3.79318e-06
-5.10039e-13
0.00333839
-3.77229e-06
-5.45476e-13
0.00334214
-3.75133e-06
-5.81069e-13
0.00334587
-3.7303e-06
-6.13366e-13
0.00334958
-3.7092e-06
-6.35898e-13
0.00335327
-3.68802e-06
-6.53217e-13
0.00335693
-3.66677e-06
-6.7126e-13
0.00336058
-3.64544e-06
-6.89309e-13
0.0033642
-3.62404e-06
-7.07204e-13
0.00336781
-3.60255e-06
-7.24661e-13
0.00337139
-3.58099e-06
-7.41489e-13
0.00337495
-3.55934e-06
-7.57763e-13
0.00337848
-3.5376e-06
-7.73696e-13
0.003382
-3.51578e-06
-7.891e-13
0.00338549
-3.49387e-06
-8.03561e-13
0.00338897
-3.47186e-06
-8.16776e-13
0.00339242
-3.44976e-06
-8.28605e-13
0.00339584
-3.42757e-06
-8.40183e-13
0.00339925
-3.40527e-06
-8.50912e-13
0.00340263
-3.38287e-06
-8.58831e-13
0.00340599
-3.36036e-06
-8.62394e-13
0.00340933
-3.33775e-06
-8.60071e-13
0.00341264
-3.31502e-06
-8.51373e-13
0.00341594
-3.29217e-06
-8.37934e-13
0.00341921
-3.2692e-06
-8.23443e-13
0.00342245
-3.24611e-06
-8.11526e-13
0.00342567
-3.22288e-06
-8.04865e-13
0.00342887
-3.19952e-06
-8.03846e-13
0.00343205
-3.17602e-06
-8.06555e-13
0.0034352
-3.15238e-06
-8.10087e-13
0.00343833
-3.12858e-06
-8.11245e-13
0.00344144
-3.10462e-06
-8.08455e-13
0.00344452
-3.08051e-06
-8.02568e-13
0.00344757
-3.05622e-06
-7.95253e-13
0.0034506
-3.03176e-06
-7.88129e-13
0.00345361
-3.00712e-06
-7.82372e-13
0.00345659
-2.98229e-06
-7.78466e-13
0.00345955
-2.95726e-06
-7.76093e-13
0.00346248
-2.93203e-06
-7.73846e-13
0.00346539
-2.90658e-06
-7.69219e-13
0.00346827
-2.88092e-06
-7.59531e-13
0.00347113
-2.85503e-06
-7.44146e-13
0.00347395
-2.82891e-06
-7.23916e-13
0.00347676
-2.80255e-06
-7.01092e-13
0.00347953
-2.77593e-06
-6.78695e-13
0.00348228
-2.74906e-06
-6.58747e-13
0.003485
-2.72192e-06
-6.36459e-13
0.0034877
-2.69451e-06
-6.18833e-13
0.00349036
-2.66682e-06
-6.09526e-13
0.003493
-2.63883e-06
-5.93605e-13
0.00349561
-2.61055e-06
-5.73244e-13
0.0034982
-2.58196e-06
-5.46078e-13
0.00350075
-2.55307e-06
-5.15163e-13
0.00350327
-2.52385e-06
-4.8179e-13
0.00350577
-2.49431e-06
-4.4813e-13
0.00350823
-2.46444e-06
-4.17116e-13
0.00351067
-2.43423e-06
-3.92006e-13
0.00351307
-2.40368e-06
-3.74421e-13
0.00351544
-2.37279e-06
-3.62679e-13
0.00351778
-2.34155e-06
-3.52179e-13
0.00352009
-2.30996e-06
-3.37572e-13
0.00352237
-2.27802e-06
-3.15488e-13
0.00352462
-2.24572e-06
-2.85454e-13
0.00352683
-2.21308e-06
-2.46056e-13
0.00352901
-2.18008e-06
-2.08987e-13
0.00353116
-2.14673e-06
-1.69757e-13
0.00353327
-2.11303e-06
-1.33023e-13
0.00353535
-2.079e-06
-9.55303e-14
0.00353739
-2.04462e-06
-5.55567e-14
0.0035394
-2.00992e-06
-1.72445e-14
0.00354138
-1.9749e-06
1.54783e-14
0.00354332
-1.93957e-06
3.80879e-14
0.00354522
-1.90394e-06
4.8289e-14
0.00354709
-1.86803e-06
4.80346e-14
0.00354892
-1.83184e-06
4.22672e-14
0.00355072
-1.79539e-06
3.60581e-14
0.00355248
-1.75871e-06
3.08584e-14
0.0035542
-1.7218e-06
2.48853e-14
0.00355588
-1.68468e-06
1.7365e-14
0.00355753
-1.64738e-06
8.97303e-15
0.00355914
-1.60992e-06
-6.2106e-16
0.00356071
-1.57232e-06
-1.22414e-14
0.00356225
-1.53461e-06
-2.50503e-14
0.00356374
-1.4968e-06
-3.52274e-14
0.0035652
-1.45893e-06
-3.92525e-14
0.00356662
-1.42102e-06
-3.78849e-14
0.00356801
-1.3831e-06
-3.5697e-14
0.00356935
-1.34519e-06
-3.92509e-14
0.00357066
-1.30732e-06
-5.34681e-14
0.00357193
-1.26952e-06
-7.87273e-14
0.00357316
-1.23182e-06
-1.106e-13
0.00357436
-1.19424e-06
-1.42505e-13
0.00357551
-1.15682e-06
-1.68308e-13
0.00357663
-1.11958e-06
-1.84814e-13
0.00357771
-1.08255e-06
-1.94254e-13
0.00357876
-1.04575e-06
-2.03777e-13
0.00357977
-1.00921e-06
-2.22497e-13
0.00358074
-9.72966e-07
-2.55381e-13
0.00358168
-9.37032e-07
-3.00436e-13
0.00358258
-9.01437e-07
-3.52166e-13
0.00358345
-8.66206e-07
-4.06451e-13
0.00358428
-8.31362e-07
-4.59226e-13
0.00358508
-7.9693e-07
-5.05077e-13
0.00358584
-7.62934e-07
-5.39945e-13
0.00358657
-7.29396e-07
-5.63209e-13
0.00358726
-6.9634e-07
-5.76675e-13
0.00358793
-6.6379e-07
-5.83374e-13
0.00358856
-6.31769e-07
-5.93119e-13
0.00358916
-6.003e-07
-6.10893e-13
0.00358973
-5.69408e-07
-6.37429e-13
0.00359027
-5.39116e-07
-6.67752e-13
0.00359078
-5.09451e-07
-6.92952e-13
0.00359126
-4.80437e-07
-7.08715e-13
0.00359171
-4.521e-07
-7.17403e-13
0.00359213
-4.24467e-07
-7.22777e-13
0.00359253
-3.97563e-07
-7.25582e-13
0.0035929
-3.71417e-07
-7.26732e-13
0.00359325
-3.46055e-07
-7.29631e-13
0.00359357
-3.21504e-07
-7.37479e-13
0.00359387
-2.9779e-07
-7.46341e-13
0.00359414
-2.74938e-07
-7.55028e-13
0.0035944
-2.52974e-07
-7.54885e-13
0.00359463
-2.31921e-07
-7.45427e-13
0.00359484
-2.11798e-07
-7.2988e-13
0.00359503
-1.92625e-07
-7.09959e-13
0.00359521
-1.74417e-07
-6.81776e-13
0.00359536
-1.57187e-07
-6.455e-13
0.00359551
-1.40944e-07
-5.99535e-13
0.00359563
-1.25693e-07
-5.51296e-13
0.00359574
-1.11434e-07
-5.01119e-13
0.00359584
-9.81636e-08
-4.4771e-13
0.00359593
-8.58724e-08
-3.93139e-13
0.003596
-7.45472e-08
-3.40866e-13
0.00359607
-6.41693e-08
-2.92126e-13
0.00359612
-5.47155e-08
-2.45536e-13
0.00359617
-4.61577e-08
-2.01881e-13
0.00359621
-3.84636e-08
-1.64731e-13
0.00359624
-3.15966e-08
-1.32105e-13
0.00359626
-2.55167e-08
-9.9039e-14
0.00359628
-2.01803e-08
-6.61522e-14
0.0035963
-1.55415e-08
-3.66996e-14
0.00359631
-1.15522e-08
-1.23852e-14
0.00359632
-8.16267e-09
9.90071e-15
0.00359632
-5.32243e-09
2.76216e-14
0.00359633
-2.98107e-09
3.83969e-14
0.00359633
-1.08752e-09
4.2705e-14
0.00359633
4.07187e-10
4.90707e-14
0.00359632
1.55097e-09
5.05369e-14
0.00359632
2.38992e-09
4.30511e-14
0.00359632
2.96763e-09
2.73556e-14
0.00359632
3.32495e-09
1.14271e-14
0.00359631
3.49973e-09
-3.45932e-15
0.00359631
3.52657e-09
-2.28352e-14
0.00359631
3.43671e-09
-5.24428e-14
0.0035963
3.25798e-09
-8.59901e-14
0.0035963
3.01479e-09
-1.0967e-13
0.0035963
2.72821e-09
-1.27186e-13
0.00359629
2.41609e-09
-1.52526e-13
0.00359629
2.09326e-09
-1.77754e-13
0.00359629
1.77175e-09
-1.9076e-13
0.00359629
1.46095e-09
-2.00711e-13
0.00359629
1.16795e-09
-2.19364e-13
0.00359629
8.97797e-10
-2.31748e-13
0.00359629
6.53759e-10
-2.33413e-13
0.00359629
4.37609e-10
-2.30765e-13
0.00359629
2.49859e-10
-2.37336e-13
0.00359629
9.00448e-11
-2.5194e-13
0.00359629
-4.31803e-11
-2.64082e-13
0.00359629
-1.51472e-10
-2.64738e-13
0.00359629
-2.37085e-10
-2.61594e-13
0.00359629
-3.02471e-10
-2.59325e-13
0.00359629
-3.5018e-10
-2.56222e-13
0.00359629
-3.8273e-10
-2.5894e-13
0.00359629
-4.02541e-10
-2.64895e-13
0.00359629
-4.11919e-10
-2.6417e-13
0.00359629
-4.1298e-10
-2.60572e-13
0.00359629
-4.07606e-10
-2.55557e-13
0.00359629
-3.97447e-10
-2.46497e-13
0.00359629
-3.83917e-10
-2.43847e-13
0.00359629
-3.68202e-10
-2.51189e-13
0.00359629
-3.51282e-10
-2.53474e-13
0.00359629
-3.3393e-10
-2.46337e-13
0.00359629
-3.16721e-10
-2.35217e-13
0.00359629
-3.00073e-10
-2.26087e-13
0.00359629
-2.84336e-10
-2.18782e-13
0.00359629
-2.69721e-10
-2.23663e-13
0.00359629
-2.56293e-10
-2.2649e-13
0.00359629
-2.44081e-10
-2.02628e-13
0.00359629
-2.33086e-10
-1.90433e-13
0.00359629
-2.23263e-10
-2.05634e-13
0.00359629
-2.14514e-10
-2.13242e-13
0.00359629
-2.06721e-10
-1.97215e-13
0.00359629
-1.99805e-10
-1.79516e-13
0.00359629
-1.93645e-10
-1.88408e-13
0.00359629
-1.88113e-10
-2.04069e-13
0.00359629
-1.83133e-10
-1.9364e-13
0.00359629
-1.78614e-10
-1.74467e-13
0.00359629
-1.74467e-10
-1.68555e-13
0.00359629
-1.70621e-10
-1.76893e-13
0.00359629
-1.67021e-10
-1.74228e-13
0.00359629
-1.6361e-10
-1.5448e-13
0.00359629
-1.6036e-10
-1.46746e-13
0.0035963
-1.57227e-10
-1.77837e-13
0.0035963
-1.5417e-10
-1.90082e-13
0.0035963
-1.51193e-10
-1.46352e-13
0.0035963
-1.48278e-10
-1.32723e-13
0.0035963
-1.45389e-10
-1.70013e-13
0.0035963
-1.42548e-10
-1.66439e-13
0.0035963
-1.39742e-10
-1.3199e-13
0.0035963
-1.36962e-10
-1.22471e-13
0.0035963
-1.34217e-10
-1.37879e-13
0.0035963
-1.31505e-10
-1.40989e-13
0.0035963
-1.28824e-10
-1.24607e-13
0.0035963
-1.26184e-10
-1.07987e-13
0.0035963
-1.23586e-10
-1.00045e-13
0.0035963
-1.21014e-10
-1.0512e-13
0.0035963
-1.18497e-10
-1.12216e-13
0.0035963
-1.16039e-10
-1.04066e-13
0.0035963
-1.13585e-10
-9.17224e-14
0.0035963
-1.11166e-10
-7.92353e-14
0.0035963
-1.08848e-10
-7.14542e-14
0.0035963
-1.06606e-10
-7.26651e-14
0.0035963
-1.0435e-10
-9.05218e-14
0.0035963
-1.0211e-10
-6.96668e-14
0.0035963
-9.99664e-11
-3.53074e-14
0.0035963
-9.79069e-11
-4.51858e-14
0.0035963
-9.58621e-11
-7.99249e-14
0.0035963
-9.38499e-11
-5.79652e-14
0.0035963
-9.19208e-11
-6.55457e-15
0.0035963
-9.00304e-11
-3.82192e-14
0.0035963
-8.81532e-11
-8.98319e-14
0.0035963
-8.63251e-11
-5.6657e-14
0.0035963
-8.45651e-11
8.83998e-15
0.0035963
-8.28185e-11
-4.73264e-15
0.0035963
-8.10987e-11
-6.60666e-14
0.0035963
-7.9475e-11
-6.58043e-14
0.0035963
-7.78617e-11
-2.41748e-14
0.0035963
-7.6224e-11
1.60041e-14
0.0035963
-7.46543e-11
-3.9784e-15
0.0035963
-7.3171e-11
-5.81957e-14
0.0035963
-7.17035e-11
-6.06123e-14
0.0035963
-7.02276e-11
-1.03052e-14
0.0035963
-6.87685e-11
9.2906e-15
0.0035963
-6.73577e-11
-1.42772e-14
0.0035963
-6.6032e-11
-1.78799e-14
0.0035963
-6.47198e-11
-2.13761e-14
0.0035963
-6.33443e-11
-2.10724e-14
0.0035963
-6.20251e-11
1.86006e-14
0.0035963
-6.0821e-11
6.75749e-15
0.0035963
-5.96015e-11
-2.6426e-14
0.0035963
-5.8339e-11
8.52705e-15
0.0035963
-5.71308e-11
1.92091e-14
0.0035963
-5.60068e-11
-1.1795e-14
0.0035963
-5.48772e-11
-1.61629e-14
0.0035963
-5.37166e-11
-1.00797e-14
0.0035963
-5.25934e-11
1.10023e-14
0.0035963
-5.15379e-11
3.34417e-14
0.0035963
-5.04927e-11
5.99073e-15
0.0035963
-4.94353e-11
-3.61717e-14
0.0035963
-4.84445e-11
-5.26405e-15
0.0035963
-4.74917e-11
5.42441e-14
0.0035963
-4.65133e-11
2.13575e-14
0.0035963
-4.55466e-11
-2.78956e-14
0.0035963
-4.47255e-11
3.07525e-14
0.0035963
-4.38661e-11
1.36431e-14
0.0035963
-4.29042e-11
-7.30077e-14
0.0035963
-4.21402e-11
3.15425e-14
0.0035963
-4.13456e-11
7.66213e-14
0.0035963
-4.04964e-11
-1.56616e-14
0.0035963
-3.97802e-11
-5.2298e-14
0.0035963
-3.90384e-11
4.43951e-15
0.0035963
-3.8247e-11
4.11155e-14
0.0035963
-3.75412e-11
5.06167e-15
0.0035963
-3.68827e-11
-1.53705e-15
0.0035963
-3.62064e-11
-9.08568e-15
0.0035963
-3.55596e-11
-1.2207e-15
0.0035963
-3.49145e-11
2.13108e-14
0.0035963
-3.42746e-11
2.3164e-14
0.0035963
-3.36637e-11
-9.84165e-15
0.0035963
-3.30854e-11
2.91753e-15
0.0035963
-3.25343e-11
4.42836e-14
0.0035963
-3.18436e-11
-3.86425e-14
0.0035963
-3.13165e-11
1.95497e-14
0.0035963
-3.08819e-11
6.69486e-14
0.0035963
-3.02212e-11
-4.00576e-14
0.0035963
-2.9571e-11
-5.73925e-14
0.0035963
-2.9205e-11
5.88982e-14
0.0035963
-2.87831e-11
5.83363e-14
0.0035963
-2.81048e-11
-1.00419e-13
0.0035963
-2.76036e-11
-4.59649e-14
0.0035963
-2.72595e-11
3.45258e-14
0.0035963
-2.67804e-11
-4.3314e-15
0.0035963
-2.62339e-11
-6.84972e-14
0.0035963
-2.584e-11
-6.41933e-14
0.0035963
-2.54038e-11
-3.45115e-14
0.0035963
-2.49173e-11
-3.54229e-14
0.0035963
-2.45448e-11
-5.20553e-14
0.0035963
-2.41922e-11
4.59029e-16
0.0035963
-2.36519e-11
-4.11545e-14
0.0035963
-2.32358e-11
-6.52129e-14
0.0035963
-2.29983e-11
4.20304e-14
0.0035963
-2.25593e-11
3.81557e-14
0.0035963
-2.21128e-11
-3.45309e-14
0.0035963
-2.17468e-11
-4.83553e-14
0.0035963
-2.14968e-11
9.71027e-14
0.0035963
-2.11015e-11
4.04722e-15
0.0035963
-2.06822e-11
-5.97592e-14
0.0035963
-2.03795e-11
2.58486e-14
0.0035963
-2.00524e-11
-2.09569e-14
0.0035963
-1.97741e-11
-5.52802e-15
0.0035963
-1.94213e-11
4.48072e-14
0.0035963
-1.90069e-11
-7.17628e-14
0.0035963
-1.88396e-11
-2.15977e-14
0.0035963
-1.85819e-11
5.58671e-14
0.0035963
-1.82402e-11
5.68434e-15
0.0035963
-1.80048e-11
-2.84614e-14
0.0035963
-1.76943e-11
-1.25354e-14
0.0035963
-1.75715e-11
7.41396e-14
0.0035963
-1.73379e-11
2.25111e-14
0.0035963
-1.70742e-11
2.93149e-14
0.0035963
-1.67752e-11
-2.91284e-14
0.0035963
-1.66517e-11
2.14006e-14
0.0035963
-1.65201e-11
5.92132e-14
0.0035963
-1.61862e-11
-1.21739e-14
0.0035963
-1.59722e-11
-2.25807e-14
0.0035963
-1.58836e-11
-9.20399e-15
0.0035963
-1.56104e-11
3.86724e-14
0.0035963
-1.53587e-11
-4.44088e-14
0.0035963
-1.53094e-11
-2.68496e-14
0.0035963
-1.50526e-11
4.13629e-14
0.0035963
-1.47313e-11
-2.32909e-14
0.0035963
-1.45994e-11
-8.65413e-14
0.0035963
-1.4475e-11
-1.00566e-14
0.0035963
-1.42907e-11
9.8656e-14
0.0035963
-1.39372e-11
-7.12591e-14
0.0035963
-1.37674e-11
-9.31332e-14
0.0035963
-1.36464e-11
3.98288e-14
0.0035963
-1.3505e-11
7.3177e-14
0.0035963
-1.31713e-11
-7.60648e-14
0.0035963
-1.30039e-11
-1.48412e-14
0.0035963
-1.28207e-11
-7.04184e-14
0.0035963
-1.27427e-11
9.04333e-14
0.0035963
-1.25049e-11
4.73516e-14
0.0035963
-1.22662e-11
-1.49647e-13
0.0035963
-1.21936e-11
8.38696e-15
0.0035963
-1.21193e-11
8.18591e-14
0.0035963
-1.17264e-11
-9.25383e-14
0.0035963
-1.17564e-11
6.92983e-14
0.0035963
-1.16818e-11
-1.33296e-14
0.0035963
-1.13974e-11
-1.73923e-14
0.0035963
-1.12652e-11
4.9458e-14
0.0035963
-1.11959e-11
2.17823e-14
0.0035963
-1.11855e-11
1.19532e-13
0.0035963
-1.08122e-11
-1.408e-13
0.0035963
-1.09086e-11
7.48226e-14
0.0035963
-1.07168e-11
5.36834e-14
0.0035963
-1.06295e-11
1.80011e-14
0.0035963
-1.06746e-11
5.43903e-14
0.0035963
-1.03818e-11
-8.48783e-14
0.0035963
-1.03613e-11
7.56183e-14
0.0035963
-1.03298e-11
8.13487e-14
0.0035963
-1.01624e-11
-1.29601e-13
0.0035963
-1.01915e-11
1.62282e-13
0.0035963
-9.83123e-12
-1.19774e-13
0.0035963
-1.0113e-11
1.33195e-13
0.0035963
-9.71789e-12
6.16539e-14
0.0035963
-9.63344e-12
-1.28588e-13
0.0035963
-9.74815e-12
8.61129e-14
0.0035963
-9.30656e-12
-6.17887e-14
0.0035963
-9.45524e-12
5.09904e-14
0.0035963
-9.21449e-12
-3.37755e-14
0.0035963
-9.12918e-12
1.14473e-15
0.0035963
-9.18366e-12
7.78261e-14
0.0035963
-8.78507e-12
-1.90588e-13
0.0035963
-8.9681e-12
1.37601e-13
0.0035963
-8.65379e-12
-8.80178e-14
0.0035963
-8.90854e-12
2.23077e-13
0.0035963
-8.54926e-12
-1.37554e-13
0.0035963
-8.46506e-12
-1.05918e-13
0.0035963
-8.49185e-12
9.39322e-14
0.0035963
-8.26067e-12
-4.16933e-14
0.0035963
-8.46846e-12
1.16072e-13
0.0035963
-8.13333e-12
-1.85476e-13
0.0035963
-8.17063e-12
5.0859e-14
0.0035963
-8.07196e-12
-5.67789e-14
0.0035963
-8.03876e-12
1.77711e-15
0.0035963
-7.89339e-12
-2.83457e-14
0.0035963
-7.85269e-12
-3.94298e-14
0.0035963
-7.84406e-12
3.3613e-14
0.0035963
-7.84669e-12
2.10069e-14
0.0035963
-7.55451e-12
-1.56946e-13
0.0035963
-7.64809e-12
6.94686e-14
0.0035963
-7.5421e-12
-2.21531e-14
0.0035963
-7.42834e-12
-3.88612e-14
0.0035963
-7.17752e-12
-1.81343e-13
0.0035963
-7.48622e-12
2.00014e-13
0.0035963
-7.04534e-12
-1.92921e-13
0.0035963
-7.14634e-12
2.68356e-14
0.0035963
-7.03911e-12
2.77417e-14
0.0035963
-6.86322e-12
-1.19924e-13
0.0035963
-6.99807e-12
1.19385e-13
0.0035963
-6.98385e-12
1.10896e-13
0.0035963
-6.61709e-12
-1.60538e-13
0.0035963
-6.85948e-12
9.76483e-14
0.0035963
-6.677e-12
-1.37058e-13
0.0035963
-6.65558e-12
1.05805e-13
0.0035963
-6.89751e-12
9.5545e-14
0.0035963
-6.43069e-12
-1.14268e-13
0.0035963
-6.82162e-12
2.87154e-14
0.0035963
-6.40762e-12
-1.97234e-14
0.0035963
-7.22868e-12
1.76244e-13
0.0035963
-6.22875e-12
-1.81006e-13
0.0035963
-7.94107e-12
1.64016e-13
0.0035963
-6.45111e-12
4.36005e-15
0.0035963
-8.80418e-12
1.30068e-14
0.0035963
-6.46013e-12
1.54371e-13
0.0035963
-7.58528e-12
-5.104e-14
0.0035963
-2.73945e-12
7.33741e-14
8.16693e-12
-1.85742e-13
0.00240039
-1.40666e-07
0.0024006
-4.2503e-07
0.00240096
-7.12898e-07
0.00240145
-1.00369e-06
0.0024021
-1.29699e-06
0.00240288
-1.59239e-06
0.00240382
-1.88945e-06
0.0024049
-2.18774e-06
0.00240613
-2.48681e-06
0.00240751
-2.7862e-06
0.00240904
-3.08547e-06
0.00241071
-3.38416e-06
0.00241254
-3.68181e-06
0.00241451
-3.97798e-06
0.00241662
-4.27222e-06
0.00241888
-4.5641e-06
0.00242128
-4.85319e-06
0.00242382
-5.13907e-06
0.0024265
-5.42134e-06
0.00242932
-5.69962e-06
0.00243227
-5.97354e-06
0.00243536
-6.24273e-06
0.00243857
-6.50688e-06
0.00244192
-6.76566e-06
0.00244539
-7.01879e-06
0.00244897
-7.26599e-06
0.00245268
-7.50701e-06
0.00245651
-7.74164e-06
0.00246044
-7.96967e-06
0.00246448
-8.19091e-06
0.00246863
-8.40522e-06
0.00247288
-8.61247e-06
0.00247723
-8.81253e-06
0.00248167
-9.00534e-06
0.0024862
-9.19082e-06
0.00249082
-9.36892e-06
0.00249553
-9.53963e-06
0.00250031
-9.70294e-06
0.00250517
-9.85887e-06
0.0025101
-1.00074e-05
0.0025151
-1.01487e-05
0.00252016
-1.02828e-05
0.00252529
-1.04096e-05
0.00253047
-1.05295e-05
0.00253571
-1.06423e-05
0.002541
-1.07484e-05
0.00254634
-1.08477e-05
0.00255173
-1.09404e-05
0.00255715
-1.10268e-05
0.00256262
-1.11069e-05
0.00256812
-1.11808e-05
0.00257365
-1.12488e-05
0.00257921
-1.13111e-05
0.0025848
-1.13678e-05
0.00259041
-1.1419e-05
0.00259605
-1.1465e-05
0.0026017
-1.1506e-05
0.00260738
-1.15421e-05
0.00261306
-1.15735e-05
0.00261876
-1.16004e-05
0.00262448
-1.16229e-05
0.00263019
-1.16414e-05
0.00263592
-1.16558e-05
0.00264165
-1.16665e-05
0.00264738
-1.16735e-05
0.00265312
-1.16771e-05
0.00265885
-1.16774e-05
0.00266459
-1.16746e-05
0.00267032
-1.16688e-05
0.00267604
-1.16602e-05
0.00268176
-1.16489e-05
0.00268747
-1.16352e-05
0.00269318
-1.1619e-05
0.00269887
-1.16007e-05
0.00270456
-1.15802e-05
0.00271023
-1.15577e-05
0.00271589
-1.15334e-05
0.00272154
-1.15074e-05
0.00272717
-1.14798e-05
0.00273279
-1.14506e-05
0.00273839
-1.142e-05
0.00274398
-1.13882e-05
0.00274955
-1.13551e-05
0.0027551
-1.13209e-05
0.00276064
-1.12857e-05
0.00276616
-1.12495e-05
0.00277166
-1.12125e-05
0.00277714
-1.11747e-05
0.0027826
-1.11361e-05
0.00278804
-1.10969e-05
0.00279346
-1.10571e-05
0.00279887
-1.10168e-05
0.00280425
-1.0976e-05
0.00280961
-1.09347e-05
0.00281495
-1.08931e-05
0.00282027
-1.08512e-05
0.00282556
-1.0809e-05
0.00283084
-1.07665e-05
0.00283609
-1.07239e-05
0.00284133
-1.0681e-05
0.00284654
-1.06381e-05
0.00285173
-1.0595e-05
0.0028569
-1.05518e-05
0.00286204
-1.05086e-05
0.00286717
-1.04654e-05
0.00287227
-1.04221e-05
0.00287735
-1.03789e-05
0.00288241
-1.03357e-05
0.00288744
-1.02925e-05
0.00289246
-1.02494e-05
0.00289745
-1.02064e-05
0.00290242
-1.01634e-05
0.00290737
-1.01206e-05
0.0029123
-1.00778e-05
0.00291721
-1.00352e-05
0.00292209
-9.99263e-06
0.00292696
-9.95021e-06
0.0029318
-9.90791e-06
0.00293662
-9.86574e-06
0.00294141
-9.8237e-06
0.00294619
-9.78178e-06
0.00295095
-9.74e-06
0.00295568
-9.69834e-06
0.00296039
-9.65681e-06
0.00296509
-9.61541e-06
0.00296976
-9.57413e-06
0.00297441
-9.53298e-06
0.00297904
-9.49195e-06
0.00298364
-9.45103e-06
0.00298823
-9.41022e-06
0.0029928
-9.36952e-06
0.00299734
-9.32893e-06
0.00300187
-9.28844e-06
0.00300637
-9.24804e-06
0.00301085
-9.20772e-06
0.00301531
-9.1675e-06
0.00301976
-9.12735e-06
0.00302418
-9.08727e-06
0.00302858
-9.04727e-06
0.00303296
-9.00732e-06
0.00303732
-8.96743e-06
0.00304166
-8.92759e-06
0.00304598
-8.8878e-06
0.00305028
-8.84805e-06
0.00305455
-8.80833e-06
0.00305881
-8.76864e-06
0.00306305
-8.72897e-06
0.00306727
-8.68933e-06
0.00307147
-8.64969e-06
0.00307564
-8.61006e-06
0.0030798
-8.57043e-06
0.00308394
-8.5308e-06
0.00308805
-8.49117e-06
0.00309215
-8.45152e-06
0.00309623
-8.41185e-06
0.00310028
-8.37217e-06
0.00310432
-8.33245e-06
0.00310833
-8.29271e-06
0.00311233
-8.25293e-06
0.00311631
-8.21312e-06
0.00312026
-8.17326e-06
0.0031242
-8.13336e-06
0.00312811
-8.09341e-06
0.00313201
-8.05341e-06
0.00313588
-8.01336e-06
0.00313974
-7.97324e-06
0.00314357
-7.93306e-06
0.00314738
-7.89282e-06
0.00315118
-7.85251e-06
0.00315495
-7.81213e-06
0.0031587
-7.77168e-06
0.00316244
-7.73115e-06
0.00316615
-7.69055e-06
0.00316984
-7.64986e-06
0.00317351
-7.60909e-06
0.00317716
-7.56824e-06
0.00318079
-7.5273e-06
0.0031844
-7.48627e-06
0.00318799
-7.44515e-06
0.00319156
-7.40393e-06
0.00319511
-7.36261e-06
0.00319864
-7.3212e-06
0.00320215
-7.27968e-06
0.00320563
-7.23806e-06
0.0032091
-7.19633e-06
0.00321254
-7.15449e-06
0.00321597
-7.11254e-06
0.00321937
-7.07047e-06
0.00322276
-7.02829e-06
0.00322612
-6.98598e-06
0.00322946
-6.94355e-06
0.00323278
-6.90098e-06
0.00323608
-6.85828e-06
0.00323936
-6.81545e-06
0.00324261
-6.77247e-06
0.00324585
-6.72935e-06
0.00324906
-6.68607e-06
0.00325225
-6.64264e-06
0.00325543
-6.59904e-06
0.00325858
-6.55528e-06
0.0032617
-6.51134e-06
0.00326481
-6.46722e-06
0.0032679
-6.42291e-06
0.00327096
-6.3784e-06
0.003274
-6.33369e-06
0.00327702
-6.28877e-06
0.00328002
-6.24362e-06
0.00328299
-6.19825e-06
0.00328595
-6.15264e-06
0.00328888
-6.10677e-06
0.00329179
-6.06065e-06
0.00329467
-6.01425e-06
0.00329753
-5.96757e-06
0.00330037
-5.92059e-06
0.00330319
-5.87331e-06
0.00330599
-5.8257e-06
0.00330876
-5.77776e-06
0.0033115
-5.72948e-06
0.00331423
-5.68083e-06
0.00331693
-5.6318e-06
0.0033196
-5.58238e-06
0.00332225
-5.53256e-06
0.00332488
-5.48231e-06
0.00332748
-5.43163e-06
0.00333006
-5.38049e-06
0.00333262
-5.32889e-06
0.00333514
-5.2768e-06
0.00333765
-5.22421e-06
0.00334012
-5.1711e-06
0.00334257
-5.11746e-06
0.003345
-5.06327e-06
0.00334739
-5.00853e-06
0.00334977
-4.9532e-06
0.00335211
-4.89729e-06
0.00335443
-4.84077e-06
0.00335672
-4.78363e-06
0.00335898
-4.72587e-06
0.00336121
-4.66748e-06
0.00336342
-4.60843e-06
0.00336559
-4.54873e-06
0.00336774
-4.48838e-06
0.00336986
-4.42735e-06
0.00337194
-4.36566e-06
0.003374
-4.30329e-06
0.00337603
-4.24026e-06
0.00337802
-4.17656e-06
0.00337999
-4.11219e-06
0.00338192
-4.04717e-06
0.00338383
-3.9815e-06
0.0033857
-3.91519e-06
0.00338754
-3.84827e-06
0.00338934
-3.78073e-06
0.00339111
-3.71262e-06
0.00339285
-3.64393e-06
0.00339456
-3.57471e-06
0.00339623
-3.50497e-06
0.00339787
-3.43475e-06
0.00339948
-3.36408e-06
0.00340105
-3.29299e-06
0.00340259
-3.22152e-06
0.00340409
-3.14971e-06
0.00340556
-3.0776e-06
0.00340699
-3.00524e-06
0.00340839
-2.93268e-06
0.00340975
-2.85995e-06
0.00341108
-2.78711e-06
0.00341237
-2.7142e-06
0.00341363
-2.64129e-06
0.00341485
-2.56842e-06
0.00341604
-2.49565e-06
0.0034172
-2.42302e-06
0.00341831
-2.3506e-06
0.0034194
-2.27844e-06
0.00342045
-2.20658e-06
0.00342146
-2.13509e-06
0.00342245
-2.06402e-06
0.00342339
-1.99341e-06
0.00342431
-1.92332e-06
0.00342519
-1.85381e-06
0.00342604
-1.7849e-06
0.00342685
-1.71667e-06
0.00342763
-1.64915e-06
0.00342839
-1.58239e-06
0.00342911
-1.51643e-06
0.00342979
-1.45133e-06
0.00343045
-1.38712e-06
0.00343108
-1.32385e-06
0.00343168
-1.26157e-06
0.00343225
-1.20032e-06
0.00343278
-1.14014e-06
0.0034333
-1.08109e-06
0.00343378
-1.0232e-06
0.00343424
-9.6653e-07
0.00343467
-9.11124e-07
0.00343507
-8.5703e-07
0.00343545
-8.04301e-07
0.00343581
-7.52986e-07
0.00343614
-7.03136e-07
0.00343645
-6.54803e-07
0.00343674
-6.08036e-07
0.003437
-5.62887e-07
0.00343725
-5.19402e-07
0.00343747
-4.77627e-07
0.00343768
-4.37606e-07
0.00343786
-3.99376e-07
0.00343803
-3.62972e-07
0.00343819
-3.28422e-07
0.00343833
-2.95749e-07
0.00343845
-2.64968e-07
0.00343856
-2.36086e-07
0.00343866
-2.09102e-07
0.00343874
-1.84008e-07
0.00343882
-1.60785e-07
0.00343888
-1.39404e-07
0.00343894
-1.19829e-07
0.00343899
-1.02013e-07
0.00343903
-8.59014e-08
0.00343906
-7.14311e-08
0.00343909
-5.85311e-08
0.00343911
-4.71234e-08
0.00343912
-3.71242e-08
0.00343914
-2.84451e-08
0.00343915