/*--------------------------------*- C++ -*----------------------------------*\
  =========                 |
  \\      /  F ield         | OpenFOAM: The Open Source CFD Toolbox
   \\    /   O peration     | Website:  https://openfoam.org
    \\  /    A nd           | Version:  7
     \\/     M anipulation  |
\*---------------------------------------------------------------------------*/
FoamFile
{
    version     2.0;
    format      ascii;
    class       volVectorField;
    location    "3";
    object      U;
}
// * * * * * * * * * * * * * * * * * * * * * * * * * * * * * * * * * * * * * //

dimensions      [0 1 -1 0 0 0 0];

internalField   nonuniform List<vector> 
48000
(
(1.00001 -5.53418e-05 0)
(1.00006 -0.000166425 0)
(1.00017 -0.000277962 0)
(1.00034 -0.00038978 0)
(1.00058 -0.000501716 0)
(1.00087 -0.000613607 0)
(1.00122 -0.00072529 0)
(1.00163 -0.000836598 0)
(1.0021 -0.000947367 0)
(1.00264 -0.00105743 0)
(1.00323 -0.00116662 0)
(1.00388 -0.00127479 0)
(1.00459 -0.00138176 0)
(1.00537 -0.00148738 0)
(1.0062 -0.00159151 0)
(1.00709 -0.001694 0)
(1.00805 -0.0017947 0)
(1.00905 -0.00189349 0)
(1.01012 -0.00199022 0)
(1.01125 -0.00208479 0)
(1.01243 -0.00217707 0)
(1.01366 -0.00226697 0)
(1.01495 -0.00235438 0)
(1.01629 -0.00243921 0)
(1.01769 -0.00252139 0)
(1.01913 -0.00260084 0)
(1.02063 -0.0026775 0)
(1.02217 -0.00275132 0)
(1.02376 -0.00282224 0)
(1.0254 -0.00289024 0)
(1.02708 -0.00295529 0)
(1.0288 -0.00301736 0)
(1.03056 -0.00307646 0)
(1.03237 -0.00313256 0)
(1.03421 -0.00318569 0)
(1.03609 -0.00323584 0)
(1.03801 -0.00328305 0)
(1.03996 -0.00332734 0)
(1.04194 -0.00336873 0)
(1.04396 -0.00340727 0)
(1.046 -0.003443 0)
(1.04808 -0.00347598 0)
(1.05017 -0.00350624 0)
(1.0523 -0.00353386 0)
(1.05445 -0.00355889 0)
(1.05662 -0.00358139 0)
(1.05881 -0.00360144 0)
(1.06102 -0.00361911 0)
(1.06325 -0.00363446 0)
(1.0655 -0.00364757 0)
(1.06777 -0.00365851 0)
(1.07005 -0.00366737 0)
(1.07234 -0.00367422 0)
(1.07464 -0.00367913 0)
(1.07696 -0.00368219 0)
(1.07928 -0.00368347 0)
(1.08162 -0.00368305 0)
(1.08396 -0.003681 0)
(1.08631 -0.00367741 0)
(1.08867 -0.00367235 0)
(1.09103 -0.00366588 0)
(1.09339 -0.0036581 0)
(1.09576 -0.00364905 0)
(1.09814 -0.00363882 0)
(1.10051 -0.00362747 0)
(1.10288 -0.00361507 0)
(1.10526 -0.00360169 0)
(1.10764 -0.00358737 0)
(1.11001 -0.0035722 0)
(1.11238 -0.00355622 0)
(1.11476 -0.00353949 0)
(1.11713 -0.00352206 0)
(1.11949 -0.00350399 0)
(1.12185 -0.00348533 0)
(1.12421 -0.00346612 0)
(1.12657 -0.00344642 0)
(1.12892 -0.00342626 0)
(1.13126 -0.00340569 0)
(1.1336 -0.00338475 0)
(1.13594 -0.00336348 0)
(1.13827 -0.00334191 0)
(1.14059 -0.00332008 0)
(1.14291 -0.00329801 0)
(1.14521 -0.00327575 0)
(1.14752 -0.00325332 0)
(1.14981 -0.00323075 0)
(1.1521 -0.00320806 0)
(1.15438 -0.00318528 0)
(1.15665 -0.00316243 0)
(1.15892 -0.00313954 0)
(1.16117 -0.00311662 0)
(1.16342 -0.00309368 0)
(1.16566 -0.00307076 0)
(1.16789 -0.00304786 0)
(1.17012 -0.003025 0)
(1.17233 -0.0030022 0)
(1.17454 -0.00297946 0)
(1.17674 -0.00295679 0)
(1.17893 -0.00293422 0)
(1.18111 -0.00291174 0)
(1.18329 -0.00288936 0)
(1.18545 -0.0028671 0)
(1.18761 -0.00284497 0)
(1.18976 -0.00282296 0)
(1.1919 -0.00280108 0)
(1.19403 -0.00277934 0)
(1.19615 -0.00275774 0)
(1.19826 -0.00273629 0)
(1.20037 -0.00271498 0)
(1.20247 -0.00269383 0)
(1.20455 -0.00267283 0)
(1.20663 -0.00265198 0)
(1.20871 -0.00263129 0)
(1.21077 -0.00261076 0)
(1.21282 -0.00259038 0)
(1.21487 -0.00257016 0)
(1.21691 -0.0025501 0)
(1.21894 -0.00253019 0)
(1.22096 -0.00251044 0)
(1.22297 -0.00249084 0)
(1.22498 -0.0024714 0)
(1.22697 -0.00245211 0)
(1.22896 -0.00243296 0)
(1.23094 -0.00241397 0)
(1.23291 -0.00239512 0)
(1.23488 -0.00237642 0)
(1.23683 -0.00235785 0)
(1.23878 -0.00233943 0)
(1.24072 -0.00232114 0)
(1.24266 -0.00230299 0)
(1.24458 -0.00228497 0)
(1.2465 -0.00226709 0)
(1.2484 -0.00224933 0)
(1.2503 -0.00223169 0)
(1.2522 -0.00221418 0)
(1.25408 -0.00219678 0)
(1.25596 -0.00217951 0)
(1.25783 -0.00216234 0)
(1.25969 -0.00214529 0)
(1.26154 -0.00212836 0)
(1.26339 -0.00211152 0)
(1.26523 -0.0020948 0)
(1.26706 -0.00207817 0)
(1.26888 -0.00206165 0)
(1.2707 -0.00204523 0)
(1.2725 -0.0020289 0)
(1.2743 -0.00201266 0)
(1.27609 -0.00199652 0)
(1.27788 -0.00198047 0)
(1.27965 -0.0019645 0)
(1.28142 -0.00194862 0)
(1.28318 -0.00193283 0)
(1.28493 -0.00191711 0)
(1.28668 -0.00190148 0)
(1.28842 -0.00188593 0)
(1.29015 -0.00187046 0)
(1.29187 -0.00185506 0)
(1.29358 -0.00183973 0)
(1.29529 -0.00182448 0)
(1.29698 -0.00180931 0)
(1.29867 -0.0017942 0)
(1.30036 -0.00177916 0)
(1.30203 -0.00176419 0)
(1.3037 -0.00174929 0)
(1.30536 -0.00173445 0)
(1.30701 -0.00171968 0)
(1.30865 -0.00170498 0)
(1.31028 -0.00169034 0)
(1.31191 -0.00167576 0)
(1.31353 -0.00166124 0)
(1.31514 -0.00164678 0)
(1.31674 -0.00163239 0)
(1.31834 -0.00161805 0)
(1.31992 -0.00160377 0)
(1.3215 -0.00158956 0)
(1.32307 -0.0015754 0)
(1.32463 -0.00156129 0)
(1.32619 -0.00154724 0)
(1.32773 -0.00153325 0)
(1.32927 -0.00151932 0)
(1.3308 -0.00150544 0)
(1.33232 -0.00149161 0)
(1.33383 -0.00147784 0)
(1.33533 -0.00146412 0)
(1.33683 -0.00145045 0)
(1.33832 -0.00143684 0)
(1.3398 -0.00142328 0)
(1.34127 -0.00140977 0)
(1.34273 -0.00139631 0)
(1.34418 -0.00138289 0)
(1.34562 -0.00136953 0)
(1.34706 -0.00135622 0)
(1.34849 -0.00134295 0)
(1.34991 -0.00132973 0)
(1.35132 -0.00131656 0)
(1.35272 -0.00130343 0)
(1.35411 -0.00129035 0)
(1.35549 -0.00127731 0)
(1.35687 -0.00126431 0)
(1.35823 -0.00125135 0)
(1.35959 -0.00123844 0)
(1.36094 -0.00122556 0)
(1.36228 -0.00121273 0)
(1.36361 -0.00119992 0)
(1.36493 -0.00118716 0)
(1.36624 -0.00117443 0)
(1.36754 -0.00116173 0)
(1.36883 -0.00114907 0)
(1.37012 -0.00113643 0)
(1.37139 -0.00112382 0)
(1.37266 -0.00111124 0)
(1.37391 -0.00109869 0)
(1.37516 -0.00108616 0)
(1.3764 -0.00107365 0)
(1.37762 -0.00106116 0)
(1.37884 -0.00104868 0)
(1.38005 -0.00103623 0)
(1.38124 -0.00102378 0)
(1.38243 -0.00101135 0)
(1.38361 -0.00099893 0)
(1.38477 -0.000986515 0)
(1.38593 -0.000974106 0)
(1.38708 -0.0009617 0)
(1.38821 -0.000949296 0)
(1.38934 -0.00093689 0)
(1.39045 -0.000924481 0)
(1.39156 -0.000912067 0)
(1.39265 -0.000899646 0)
(1.39374 -0.000887215 0)
(1.39481 -0.000874773 0)
(1.39587 -0.000862318 0)
(1.39692 -0.000849848 0)
(1.39795 -0.000837362 0)
(1.39898 -0.000824857 0)
(1.4 -0.000812333 0)
(1.401 -0.000799789 0)
(1.40199 -0.000787222 0)
(1.40297 -0.000774633 0)
(1.40394 -0.00076202 0)
(1.40489 -0.000749383 0)
(1.40583 -0.000736722 0)
(1.40676 -0.000724037 0)
(1.40768 -0.000711327 0)
(1.40858 -0.000698595 0)
(1.40948 -0.000685839 0)
(1.41035 -0.000673063 0)
(1.41122 -0.000660266 0)
(1.41207 -0.000647451 0)
(1.41291 -0.00063462 0)
(1.41373 -0.000621775 0)
(1.41454 -0.000608919 0)
(1.41534 -0.000596056 0)
(1.41612 -0.000583189 0)
(1.41689 -0.000570321 0)
(1.41764 -0.000557457 0)
(1.41838 -0.000544602 0)
(1.41911 -0.00053176 0)
(1.41982 -0.000518937 0)
(1.42052 -0.000506137 0)
(1.4212 -0.000493368 0)
(1.42186 -0.000480635 0)
(1.42251 -0.000467945 0)
(1.42315 -0.000455303 0)
(1.42377 -0.000442717 0)
(1.42438 -0.000430193 0)
(1.42497 -0.00041774 0)
(1.42554 -0.000405363 0)
(1.4261 -0.000393069 0)
(1.42665 -0.000380867 0)
(1.42718 -0.000368764 0)
(1.42769 -0.000356766 0)
(1.42819 -0.00034488 0)
(1.42868 -0.000333114 0)
(1.42915 -0.000321475 0)
(1.4296 -0.000309968 0)
(1.43004 -0.000298601 0)
(1.43047 -0.00028738 0)
(1.43088 -0.000276311 0)
(1.43128 -0.0002654 0)
(1.43166 -0.000254651 0)
(1.43202 -0.000244072 0)
(1.43238 -0.000233666 0)
(1.43272 -0.00022344 0)
(1.43304 -0.000213396 0)
(1.43335 -0.000203541 0)
(1.43365 -0.000193879 0)
(1.43394 -0.000184413 0)
(1.43421 -0.000175149 0)
(1.43447 -0.000166091 0)
(1.43471 -0.000157242 0)
(1.43495 -0.000148607 0)
(1.43517 -0.00014019 0)
(1.43538 -0.000131995 0)
(1.43558 -0.000124028 0)
(1.43576 -0.000116291 0)
(1.43594 -0.00010879 0)
(1.4361 -0.000101529 0)
(1.43626 -9.45128e-05 0)
(1.4364 -8.7745e-05 0)
(1.43653 -8.12302e-05 0)
(1.43666 -7.49723e-05 0)
(1.43677 -6.89752e-05 0)
(1.43688 -6.32422e-05 0)
(1.43697 -5.77764e-05 0)
(1.43706 -5.25801e-05 0)
(1.43714 -4.76552e-05 0)
(1.43722 -4.30026e-05 0)
(1.43728 -3.86227e-05 0)
(1.43734 -3.45148e-05 0)
(1.43739 -3.06773e-05 0)
(1.43744 -2.71074e-05 0)
(1.43748 -2.38015e-05 0)
(1.43752 -2.07547e-05 0)
(1.43755 -1.7961e-05 0)
(1.43758 -1.54134e-05 0)
(1.4376 -1.31038e-05 0)
(1.43762 -1.1023e-05 0)
(1.43764 -9.1611e-06 0)
(1.43765 -7.50715e-06 0)
(1.43767 -6.0496e-06 0)
(1.43768 -4.77626e-06 0)
(1.43768 -3.67449e-06 0)
(1.43769 -2.73136e-06 0)
(1.43769 -1.93372e-06 0)
(1.43769 -1.26843e-06 0)
(1.4377 -7.2244e-07 0)
(1.4377 -2.83067e-07 0)
(1.4377 6.212e-08 0)
(1.4377 3.24998e-07 0)
(1.4377 5.16837e-07 0)
(1.43769 6.48209e-07 0)
(1.43769 7.28924e-07 0)
(1.43769 7.6799e-07 0)
(1.43769 7.7357e-07 0)
(1.43769 7.52963e-07 0)
(1.43769 7.12618e-07 0)
(1.43769 6.58135e-07 0)
(1.43768 5.94307e-07 0)
(1.43768 5.25156e-07 0)
(1.43768 4.53988e-07 0)
(1.43768 3.83447e-07 0)
(1.43768 3.15584e-07 0)
(1.43768 2.51912e-07 0)
(1.43768 1.93481e-07 0)
(1.43768 1.40953e-07 0)
(1.43768 9.46578e-08 0)
(1.43768 5.46517e-08 0)
(1.43768 2.0785e-08 0)
(1.43768 -7.27782e-09 0)
(1.43768 -2.99546e-08 0)
(1.43768 -4.77536e-08 0)
(1.43768 -6.1234e-08 0)
(1.43768 -7.0964e-08 0)
(1.43768 -7.74964e-08 0)
(1.43768 -8.1362e-08 0)
(1.43768 -8.30642e-08 0)
(1.43768 -8.30536e-08 0)
(1.43768 -8.17288e-08 0)
(1.43768 -7.94394e-08 0)
(1.43768 -7.64791e-08 0)
(1.43768 -7.30922e-08 0)
(1.43768 -6.94823e-08 0)
(1.43768 -6.58077e-08 0)
(1.43768 -6.21838e-08 0)
(1.43768 -5.86921e-08 0)
(1.43768 -5.53985e-08 0)
(1.43768 -5.23422e-08 0)
(1.43768 -4.95386e-08 0)
(1.43768 -4.69944e-08 0)
(1.43768 -4.46983e-08 0)
(1.43768 -4.26387e-08 0)
(1.43768 -4.08029e-08 0)
(1.43768 -3.91659e-08 0)
(1.43768 -3.77057e-08 0)
(1.43768 -3.63952e-08 0)
(1.43768 -3.52127e-08 0)
(1.43768 -3.41471e-08 0)
(1.43768 -3.31752e-08 0)
(1.43768 -3.22778e-08 0)
(1.43768 -3.14416e-08 0)
(1.43768 -3.06584e-08 0)
(1.43768 -2.9918e-08 0)
(1.43768 -2.92112e-08 0)
(1.43768 -2.85251e-08 0)
(1.43768 -2.78597e-08 0)
(1.43768 -2.72227e-08 0)
(1.43768 -2.65967e-08 0)
(1.43768 -2.59725e-08 0)
(1.43768 -2.53675e-08 0)
(1.43768 -2.47766e-08 0)
(1.43768 -2.41921e-08 0)
(1.43768 -2.36156e-08 0)
(1.43768 -2.30488e-08 0)
(1.43768 -2.24923e-08 0)
(1.43768 -2.19494e-08 0)
(1.43768 -2.14187e-08 0)
(1.43768 -2.08918e-08 0)
(1.43768 -2.03765e-08 0)
(1.43768 -1.98775e-08 0)
(1.43768 -1.9385e-08 0)
(1.43768 -1.89022e-08 0)
(1.43768 -1.84383e-08 0)
(1.43768 -1.79874e-08 0)
(1.43768 -1.75367e-08 0)
(1.43768 -1.7099e-08 0)
(1.43768 -1.66835e-08 0)
(1.43768 -1.62741e-08 0)
(1.43768 -1.58647e-08 0)
(1.43768 -1.5477e-08 0)
(1.43768 -1.51111e-08 0)
(1.43769 -1.47376e-08 0)
(1.43769 -1.43646e-08 0)
(1.43769 -1.40182e-08 0)
(1.43769 -1.36907e-08 0)
(1.43769 -1.33513e-08 0)
(1.43769 -1.30138e-08 0)
(1.43769 -1.27073e-08 0)
(1.43769 -1.24088e-08 0)
(1.43769 -1.2103e-08 0)
(1.43769 -1.18039e-08 0)
(1.43769 -1.15187e-08 0)
(1.43769 -1.12455e-08 0)
(1.43769 -1.09806e-08 0)
(1.43769 -1.07141e-08 0)
(1.43769 -1.04474e-08 0)
(1.43769 -1.02013e-08 0)
(1.43769 -9.96146e-09 0)
(1.43769 -9.71257e-09 0)
(1.43769 -9.48079e-09 0)
(1.43769 -9.25999e-09 0)
(1.43769 -9.0291e-09 0)
(1.43769 -8.80992e-09 0)
(1.43769 -8.60086e-09 0)
(1.43769 -8.39379e-09 0)
(1.43769 -8.18989e-09 0)
(1.43769 -7.98633e-09 0)
(1.43769 -7.7923e-09 0)
(1.43769 -7.61324e-09 0)
(1.43769 -7.4282e-09 0)
(1.43769 -7.23324e-09 0)
(1.43769 -7.06436e-09 0)
(1.43769 -6.91096e-09 0)
(1.43769 -6.73811e-09 0)
(1.43769 -6.56399e-09 0)
(1.43769 -6.43021e-09 0)
(1.43769 -6.27999e-09 0)
(1.43769 -6.10638e-09 0)
(1.43769 -5.99058e-09 0)
(1.43769 -5.86073e-09 0)
(1.43769 -5.70534e-09 0)
(1.43769 -5.57811e-09 0)
(1.43769 -5.459e-09 0)
(1.43769 -5.33395e-09 0)
(1.43769 -5.21505e-09 0)
(1.43769 -5.10086e-09 0)
(1.43769 -4.98504e-09 0)
(1.43769 -4.87984e-09 0)
(1.43769 -4.77763e-09 0)
(1.43769 -4.67041e-09 0)
(1.43769 -4.56525e-09 0)
(1.43769 -4.47209e-09 0)
(1.43769 -4.38479e-09 0)
(1.43769 -4.26499e-09 0)
(1.43769 -4.18515e-09 0)
(1.43769 -4.11714e-09 0)
(1.43769 -4.00232e-09 0)
(1.43769 -3.89733e-09 0)
(1.43769 -3.84822e-09 0)
(1.43769 -3.77772e-09 0)
(1.43769 -3.65885e-09 0)
(1.43769 -3.58485e-09 0)
(1.43769 -3.53172e-09 0)
(1.43769 -3.45282e-09 0)
(1.43769 -3.36867e-09 0)
(1.43769 -3.30646e-09 0)
(1.43769 -3.2338e-09 0)
(1.43769 -3.15997e-09 0)
(1.43769 -3.10688e-09 0)
(1.43769 -3.05544e-09 0)
(1.43769 -2.9653e-09 0)
(1.43769 -2.90156e-09 0)
(1.43769 -2.87488e-09 0)
(1.43769 -2.81166e-09 0)
(1.43769 -2.73374e-09 0)
(1.43769 -2.67326e-09 0)
(1.43769 -2.65254e-09 0)
(1.43769 -2.58379e-09 0)
(1.43769 -2.51288e-09 0)
(1.43769 -2.47616e-09 0)
(1.43769 -2.42164e-09 0)
(1.43769 -2.38117e-09 0)
(1.43769 -2.33771e-09 0)
(1.43769 -2.26536e-09 0)
(1.43769 -2.24091e-09 0)
(1.43769 -2.2151e-09 0)
(1.43769 -2.15985e-09 0)
(1.43769 -2.11926e-09 0)
(1.43769 -2.07668e-09 0)
(1.43769 -2.06145e-09 0)
(1.43769 -2.01916e-09 0)
(1.43769 -1.9857e-09 0)
(1.43769 -1.93773e-09 0)
(1.43769 -1.91679e-09 0)
(1.43769 -1.89666e-09 0)
(1.43769 -1.84902e-09 0)
(1.43769 -1.81655e-09 0)
(1.43769 -1.79802e-09 0)
(1.43769 -1.76407e-09 0)
(1.43769 -1.72362e-09 0)
(1.43769 -1.71692e-09 0)
(1.43769 -1.68217e-09 0)
(1.43769 -1.62914e-09 0)
(1.43769 -1.61245e-09 0)
(1.43769 -1.59848e-09 0)
(1.43769 -1.57685e-09 0)
(1.43769 -1.51597e-09 0)
(1.43769 -1.49013e-09 0)
(1.43769 -1.48799e-09 0)
(1.43769 -1.46973e-09 0)
(1.43769 -1.40699e-09 0)
(1.43769 -1.393e-09 0)
(1.43769 -1.36557e-09 0)
(1.43769 -1.36791e-09 0)
(1.43769 -1.33061e-09 0)
(1.43769 -1.28245e-09 0)
(1.43769 -1.287e-09 0)
(1.43769 -1.27891e-09 0)
(1.43769 -1.21573e-09 0)
(1.43769 -1.23288e-09 0)
(1.43769 -1.20993e-09 0)
(1.43769 -1.17717e-09 0)
(1.43769 -1.16751e-09 0)
(1.43769 -1.15055e-09 0)
(1.43769 -1.15083e-09 0)
(1.43769 -1.0896e-09 0)
(1.43769 -1.1154e-09 0)
(1.43769 -1.08641e-09 0)
(1.43769 -1.06757e-09 0)
(1.43769 -1.07678e-09 0)
(1.43769 -1.03412e-09 0)
(1.43769 -1.03532e-09 0)
(1.43769 -1.03267e-09 0)
(1.43769 -9.94377e-10 0)
(1.43769 -1.02001e-09 0)
(1.43769 -9.58791e-10 0)
(1.43769 -9.94583e-10 0)
(1.43769 -9.49845e-10 0)
(1.43769 -9.27798e-10 0)
(1.43769 -9.50038e-10 0)
(1.43769 -8.89828e-10 0)
(1.43769 -9.07687e-10 0)
(1.43769 -8.75442e-10 0)
(1.43769 -8.74374e-10 0)
(1.43769 -8.81287e-10 0)
(1.43769 -8.07426e-10 0)
(1.43769 -8.54209e-10 0)
(1.43769 -8.05316e-10 0)
(1.43769 -8.49092e-10 0)
(1.43769 -7.80077e-10 0)
(1.43769 -7.71957e-10 0)
(1.43769 -7.91195e-10 0)
(1.43769 -7.54213e-10 0)
(1.43769 -7.84052e-10 0)
(1.43769 -7.2343e-10 0)
(1.43769 -7.45391e-10 0)
(1.43769 -7.26834e-10 0)
(1.43769 -7.2022e-10 0)
(1.43769 -7.06188e-10 0)
(1.43769 -7.04622e-10 0)
(1.43769 -6.97204e-10 0)
(1.43769 -7.00663e-10 0)
(1.43769 -6.53045e-10 0)
(1.43769 -6.85495e-10 0)
(1.43769 -6.55768e-10 0)
(1.43769 -6.44635e-10 0)
(1.43769 -6.10875e-10 0)
(1.43769 -6.66102e-10 0)
(1.43769 -5.93062e-10 0)
(1.43769 -6.12776e-10 0)
(1.43769 -6.16967e-10 0)
(1.43769 -5.72916e-10 0)
(1.43769 -6.00871e-10 0)
(1.43769 -6.06488e-10 0)
(1.43769 -5.36185e-10 0)
(1.43769 -5.93972e-10 0)
(1.43769 -5.36946e-10 0)
(1.43769 -5.63907e-10 0)
(1.43769 -5.89153e-10 0)
(1.43769 -5.15154e-10 0)
(1.43769 -5.68481e-10 0)
(1.43769 -5.1811e-10 0)
(1.43769 -6.06973e-10 0)
(1.43769 -4.90891e-10 0)
(1.43769 -6.55622e-10 0)
(1.43769 -5.1578e-10 0)
(1.43769 -7.06556e-10 0)
(1.43769 -5.12566e-10 0)
(1.43769 -5.93635e-10 0)
(1.43769 -2.02408e-10 0)
(1.43769 7.22121e-10 0)
(1.00001 -0.000165029 0)
(1.00006 -0.000496283 0)
(1.00017 -0.000828891 0)
(1.00035 -0.00116233 0)
(1.00059 -0.00149611 0)
(1.00089 -0.00182973 0)
(1.00125 -0.00216271 0)
(1.00167 -0.00249454 0)
(1.00215 -0.00282472 0)
(1.00269 -0.00315276 0)
(1.0033 -0.00347815 0)
(1.00397 -0.00380041 0)
(1.00469 -0.00411907 0)
(1.00548 -0.00443365 0)
(1.00633 -0.00474369 0)
(1.00725 -0.00504877 0)
(1.00822 -0.00534845 0)
(1.00925 -0.00564234 0)
(1.01033 -0.00593005 0)
(1.01148 -0.00621121 0)
(1.01268 -0.00648549 0)
(1.01394 -0.00675257 0)
(1.01525 -0.00701217 0)
(1.01662 -0.00726401 0)
(1.01804 -0.00750787 0)
(1.01951 -0.00774354 0)
(1.02103 -0.00797082 0)
(1.0226 -0.00818956 0)
(1.02422 -0.00839964 0)
(1.02588 -0.00860095 0)
(1.02758 -0.00879342 0)
(1.02933 -0.00897698 0)
(1.03113 -0.00915163 0)
(1.03296 -0.00931734 0)
(1.03483 -0.00947416 0)
(1.03673 -0.00962211 0)
(1.03868 -0.00976127 0)
(1.04065 -0.00989171 0)
(1.04266 -0.0100135 0)
(1.0447 -0.0101269 0)
(1.04677 -0.0102319 0)
(1.04887 -0.0103286 0)
(1.05099 -0.0104174 0)
(1.05314 -0.0104982 0)
(1.05531 -0.0105714 0)
(1.0575 -0.0106371 0)
(1.05972 -0.0106955 0)
(1.06195 -0.0107469 0)
(1.0642 -0.0107914 0)
(1.06647 -0.0108293 0)
(1.06876 -0.0108607 0)
(1.07106 -0.010886 0)
(1.07337 -0.0109054 0)
(1.07569 -0.0109191 0)
(1.07802 -0.0109272 0)
(1.08037 -0.0109302 0)
(1.08272 -0.0109281 0)
(1.08508 -0.0109213 0)
(1.08745 -0.0109098 0)
(1.08982 -0.0108941 0)
(1.0922 -0.0108742 0)
(1.09458 -0.0108504 0)
(1.09696 -0.010823 0)
(1.09935 -0.010792 0)
(1.10174 -0.0107578 0)
(1.10413 -0.0107205 0)
(1.10651 -0.0106803 0)
(1.1089 -0.0106373 0)
(1.11129 -0.0105918 0)
(1.11368 -0.010544 0)
(1.11606 -0.0104939 0)
(1.11844 -0.0104419 0)
(1.12082 -0.0103879 0)
(1.1232 -0.0103322 0)
(1.12557 -0.0102748 0)
(1.12793 -0.0102161 0)
(1.13029 -0.0101559 0)
(1.13265 -0.0100946 0)
(1.135 -0.0100322 0)
(1.13734 -0.00996879 0)
(1.13968 -0.00990451 0)
(1.14201 -0.00983945 0)
(1.14434 -0.00977371 0)
(1.14665 -0.00970738 0)
(1.14896 -0.00964055 0)
(1.15127 -0.00957329 0)
(1.15356 -0.00950568 0)
(1.15585 -0.00943779 0)
(1.15813 -0.0093697 0)
(1.1604 -0.00930145 0)
(1.16266 -0.00923311 0)
(1.16492 -0.00916473 0)
(1.16716 -0.00909636 0)
(1.1694 -0.00902806 0)
(1.17163 -0.00895986 0)
(1.17385 -0.0088918 0)
(1.17606 -0.00882392 0)
(1.17826 -0.00875626 0)
(1.18046 -0.00868884 0)
(1.18264 -0.00862169 0)
(1.18482 -0.00855484 0)
(1.18698 -0.00848832 0)
(1.18914 -0.00842213 0)
(1.19129 -0.00835631 0)
(1.19343 -0.00829087 0)
(1.19556 -0.00822582 0)
(1.19768 -0.00816118 0)
(1.19979 -0.00809695 0)
(1.2019 -0.00803315 0)
(1.20399 -0.00796978 0)
(1.20607 -0.00790686 0)
(1.20815 -0.00784438 0)
(1.21022 -0.00778236 0)
(1.21227 -0.00772078 0)
(1.21432 -0.00765966 0)
(1.21636 -0.007599 0)
(1.21839 -0.00753879 0)
(1.22041 -0.00747904 0)
(1.22243 -0.00741975 0)
(1.22443 -0.0073609 0)
(1.22642 -0.0073025 0)
(1.22841 -0.00724455 0)
(1.23039 -0.00718704 0)
(1.23235 -0.00712996 0)
(1.23431 -0.00707332 0)
(1.23626 -0.0070171 0)
(1.2382 -0.0069613 0)
(1.24014 -0.00690592 0)
(1.24206 -0.00685094 0)
(1.24398 -0.00679637 0)
(1.24588 -0.0067422 0)
(1.24778 -0.00668841 0)
(1.24967 -0.00663501 0)
(1.25155 -0.00658198 0)
(1.25342 -0.00652932 0)
(1.25529 -0.00647703 0)
(1.25714 -0.00642509 0)
(1.25899 -0.0063735 0)
(1.26083 -0.00632225 0)
(1.26265 -0.00627134 0)
(1.26447 -0.00622076 0)
(1.26629 -0.0061705 0)
(1.26809 -0.00612055 0)
(1.26989 -0.00607092 0)
(1.27167 -0.00602159 0)
(1.27345 -0.00597256 0)
(1.27522 -0.00592382 0)
(1.27698 -0.00587537 0)
(1.27873 -0.0058272 0)
(1.28048 -0.0057793 0)
(1.28222 -0.00573168 0)
(1.28394 -0.00568432 0)
(1.28566 -0.00563722 0)
(1.28737 -0.00559037 0)
(1.28908 -0.00554378 0)
(1.29077 -0.00549744 0)
(1.29246 -0.00545133 0)
(1.29413 -0.00540547 0)
(1.2958 -0.00535984 0)
(1.29746 -0.00531444 0)
(1.29911 -0.00526926 0)
(1.30076 -0.00522431 0)
(1.30239 -0.00517959 0)
(1.30402 -0.00513507 0)
(1.30564 -0.00509078 0)
(1.30725 -0.00504669 0)
(1.30885 -0.00500281 0)
(1.31044 -0.00495914 0)
(1.31203 -0.00491567 0)
(1.3136 -0.0048724 0)
(1.31517 -0.00482934 0)
(1.31673 -0.00478646 0)
(1.31828 -0.00474378 0)
(1.31982 -0.00470129 0)
(1.32136 -0.004659 0)
(1.32288 -0.00461689 0)
(1.3244 -0.00457496 0)
(1.32591 -0.00453322 0)
(1.32741 -0.00449166 0)
(1.3289 -0.00445028 0)
(1.33038 -0.00440908 0)
(1.33186 -0.00436806 0)
(1.33332 -0.00432721 0)
(1.33478 -0.00428653 0)
(1.33623 -0.00424602 0)
(1.33767 -0.00420569 0)
(1.3391 -0.00416552 0)
(1.34052 -0.00412551 0)
(1.34193 -0.00408567 0)
(1.34334 -0.00404598 0)
(1.34473 -0.00400646 0)
(1.34612 -0.00396709 0)
(1.3475 -0.00392788 0)
(1.34887 -0.00388882 0)
(1.35023 -0.00384991 0)
(1.35158 -0.00381114 0)
(1.35293 -0.00377251 0)
(1.35426 -0.00373403 0)
(1.35559 -0.00369569 0)
(1.3569 -0.00365747 0)
(1.35821 -0.00361939 0)
(1.35951 -0.00358144 0)
(1.3608 -0.00354361 0)
(1.36208 -0.0035059 0)
(1.36335 -0.0034683 0)
(1.36462 -0.00343082 0)
(1.36587 -0.00339344 0)
(1.36711 -0.00335617 0)
(1.36835 -0.00331899 0)
(1.36957 -0.00328191 0)
(1.37079 -0.00324491 0)
(1.372 -0.003208 0)
(1.3732 -0.00317116 0)
(1.37438 -0.0031344 0)
(1.37556 -0.0030977 0)
(1.37673 -0.00306106 0)
(1.37789 -0.00302448 0)
(1.37904 -0.00298794 0)
(1.38018 -0.00295144 0)
(1.38131 -0.00291498 0)
(1.38243 -0.00287855 0)
(1.38354 -0.00284214 0)
(1.38464 -0.00280575 0)
(1.38573 -0.00276936 0)
(1.38681 -0.00273298 0)
(1.38787 -0.00269659 0)
(1.38893 -0.0026602 0)
(1.38998 -0.00262379 0)
(1.39102 -0.00258735 0)
(1.39204 -0.00255089 0)
(1.39306 -0.0025144 0)
(1.39406 -0.00247786 0)
(1.39506 -0.00244129 0)
(1.39604 -0.00240466 0)
(1.39701 -0.00236798 0)
(1.39797 -0.00233125 0)
(1.39892 -0.00229445 0)
(1.39985 -0.00225759 0)
(1.40078 -0.00222067 0)
(1.40169 -0.00218368 0)
(1.40259 -0.00214662 0)
(1.40348 -0.0021095 0)
(1.40436 -0.00207231 0)
(1.40522 -0.00203505 0)
(1.40607 -0.00199773 0)
(1.40691 -0.00196036 0)
(1.40773 -0.00192292 0)
(1.40855 -0.00188544 0)
(1.40935 -0.00184792 0)
(1.41013 -0.00181035 0)
(1.4109 -0.00177276 0)
(1.41166 -0.00173515 0)
(1.41241 -0.00169754 0)
(1.41314 -0.00165992 0)
(1.41386 -0.00162232 0)
(1.41456 -0.00158475 0)
(1.41525 -0.00154723 0)
(1.41593 -0.00150976 0)
(1.41659 -0.00147237 0)
(1.41724 -0.00143506 0)
(1.41787 -0.00139787 0)
(1.41849 -0.00136081 0)
(1.41909 -0.00132389 0)
(1.41968 -0.00128714 0)
(1.42026 -0.00125058 0)
(1.42082 -0.00121423 0)
(1.42137 -0.0011781 0)
(1.4219 -0.00114223 0)
(1.42241 -0.00110662 0)
(1.42292 -0.00107131 0)
(1.4234 -0.00103631 0)
(1.42388 -0.00100164 0)
(1.42434 -0.000967329 0)
(1.42478 -0.00093339 0)
(1.42521 -0.000899844 0)
(1.42563 -0.000866709 0)
(1.42603 -0.000834004 0)
(1.42642 -0.000801747 0)
(1.42679 -0.000769955 0)
(1.42715 -0.000738644 0)
(1.4275 -0.000707829 0)
(1.42783 -0.000677525 0)
(1.42815 -0.000647748 0)
(1.42846 -0.000618509 0)
(1.42875 -0.000589824 0)
(1.42903 -0.000561705 0)
(1.4293 -0.000534165 0)
(1.42955 -0.000507215 0)
(1.42979 -0.000480868 0)
(1.43003 -0.000455137 0)
(1.43024 -0.000430034 0)
(1.43045 -0.00040557 0)
(1.43065 -0.000381759 0)
(1.43083 -0.000358612 0)
(1.43101 -0.000336143 0)
(1.43117 -0.000314364 0)
(1.43132 -0.000293288 0)
(1.43147 -0.000272927 0)
(1.4316 -0.000253295 0)
(1.43172 -0.000234402 0)
(1.43184 -0.000216261 0)
(1.43194 -0.000198881 0)
(1.43204 -0.000182274 0)
(1.43213 -0.000166446 0)
(1.43221 -0.000151405 0)
(1.43229 -0.000137155 0)
(1.43236 -0.0001237 0)
(1.43242 -0.000111038 0)
(1.43247 -9.91689e-05 0)
(1.43252 -8.80861e-05 0)
(1.43256 -7.77818e-05 0)
(1.4326 -6.82445e-05 0)
(1.43263 -5.94596e-05 0)
(1.43266 -5.14094e-05 0)
(1.43269 -4.40729e-05 0)
(1.43271 -3.74261e-05 0)
(1.43273 -3.14423e-05 0)
(1.43274 -2.60918e-05 0)
(1.43275 -2.13429e-05 0)
(1.43276 -1.71615e-05 0)
(1.43277 -1.35122e-05 0)
(1.43278 -1.0358e-05 0)
(1.43278 -7.66114e-06 0)
(1.43279 -5.38348e-06 0)
(1.43279 -3.4868e-06 0)
(1.43279 -1.93327e-06 0)
(1.43279 -6.85912e-07 0)
(1.43279 2.91073e-07 0)
(1.43279 1.03211e-06 0)
(1.43279 1.56976e-06 0)
(1.43279 1.93455e-06 0)
(1.43279 2.15477e-06 0)
(1.43279 2.25637e-06 0)
(1.43278 2.26281e-06 0)
(1.43278 2.1951e-06 0)
(1.43278 2.07171e-06 0)
(1.43278 1.90873e-06 0)
(1.43278 1.71985e-06 0)
(1.43278 1.51657e-06 0)
(1.43278 1.30831e-06 0)
(1.43278 1.10258e-06 0)
(1.43278 9.05191e-07 0)
(1.43278 7.20414e-07 0)
(1.43278 5.51191e-07 0)
(1.43277 3.99343e-07 0)
(1.43277 2.65743e-07 0)
(1.43277 1.50485e-07 0)
(1.43277 5.30497e-08 0)
(1.43277 -2.74767e-08 0)
(1.43277 -9.24157e-08 0)
(1.43277 -1.43268e-07 0)
(1.43277 -1.81648e-07 0)
(1.43278 -2.09216e-07 0)
(1.43278 -2.27593e-07 0)
(1.43278 -2.3832e-07 0)
(1.43278 -2.42839e-07 0)
(1.43278 -2.42458e-07 0)
(1.43278 -2.38329e-07 0)
(1.43278 -2.31454e-07 0)
(1.43278 -2.22687e-07 0)
(1.43278 -2.12733e-07 0)
(1.43278 -2.02162e-07 0)
(1.43278 -1.91425e-07 0)
(1.43278 -1.80862e-07 0)
(1.43278 -1.7071e-07 0)
(1.43278 -1.61144e-07 0)
(1.43278 -1.52278e-07 0)
(1.43278 -1.44151e-07 0)
(1.43278 -1.36767e-07 0)
(1.43278 -1.30116e-07 0)
(1.43278 -1.24163e-07 0)
(1.43278 -1.18848e-07 0)
(1.43278 -1.14097e-07 0)
(1.43278 -1.09857e-07 0)
(1.43278 -1.06066e-07 0)
(1.43278 -1.02653e-07 0)
(1.43278 -9.95574e-08 0)
(1.43278 -9.67255e-08 0)
(1.43278 -9.41142e-08 0)
(1.43278 -9.16883e-08 0)
(1.43278 -8.94085e-08 0)
(1.43278 -8.72394e-08 0)
(1.43278 -8.51709e-08 0)
(1.43278 -8.31878e-08 0)
(1.43278 -8.12573e-08 0)
(1.43278 -7.93691e-08 0)
(1.43278 -7.75317e-08 0)
(1.43278 -7.57368e-08 0)
(1.43278 -7.39747e-08 0)
(1.43278 -7.22356e-08 0)
(1.43278 -7.05226e-08 0)
(1.43278 -6.88467e-08 0)
(1.43278 -6.72009e-08 0)
(1.43278 -6.55787e-08 0)
(1.43278 -6.39883e-08 0)
(1.43278 -6.24321e-08 0)
(1.43278 -6.09047e-08 0)
(1.43278 -5.9411e-08 0)
(1.43278 -5.79508e-08 0)
(1.43278 -5.65128e-08 0)
(1.43278 -5.5105e-08 0)
(1.43278 -5.37451e-08 0)
(1.43278 -5.24285e-08 0)
(1.43278 -5.11287e-08 0)
(1.43278 -4.98445e-08 0)
(1.43278 -4.86065e-08 0)
(1.43278 -4.74228e-08 0)
(1.43278 -4.62619e-08 0)
(1.43278 -4.51115e-08 0)
(1.43278 -4.39963e-08 0)
(1.43278 -4.29276e-08 0)
(1.43278 -4.18876e-08 0)
(1.43278 -4.08605e-08 0)
(1.43278 -3.98579e-08 0)
(1.43278 -3.8887e-08 0)
(1.43278 -3.79451e-08 0)
(1.43278 -3.70387e-08 0)
(1.43278 -3.61418e-08 0)
(1.43278 -3.52482e-08 0)
(1.43278 -3.43935e-08 0)
(1.43278 -3.35799e-08 0)
(1.43278 -3.27776e-08 0)
(1.43278 -3.19802e-08 0)
(1.43278 -3.11973e-08 0)
(1.43278 -3.04368e-08 0)
(1.43278 -2.97141e-08 0)
(1.43278 -2.90184e-08 0)
(1.43278 -2.8306e-08 0)
(1.43278 -2.75982e-08 0)
(1.43278 -2.69453e-08 0)
(1.43278 -2.63108e-08 0)
(1.43278 -2.56633e-08 0)
(1.43278 -2.50358e-08 0)
(1.43278 -2.44348e-08 0)
(1.43278 -2.38442e-08 0)
(1.43278 -2.32597e-08 0)
(1.43278 -2.26886e-08 0)
(1.43278 -2.21464e-08 0)
(1.43278 -2.16156e-08 0)
(1.43278 -2.10821e-08 0)
(1.43278 -2.05739e-08 0)
(1.43278 -2.00916e-08 0)
(1.43278 -1.96197e-08 0)
(1.43278 -1.91433e-08 0)
(1.43278 -1.8699e-08 0)
(1.43278 -1.82779e-08 0)
(1.43278 -1.78386e-08 0)
(1.43278 -1.74274e-08 0)
(1.43278 -1.70271e-08 0)
(1.43278 -1.66342e-08 0)
(1.43278 -1.62652e-08 0)
(1.43278 -1.58899e-08 0)
(1.43278 -1.55212e-08 0)
(1.43278 -1.51837e-08 0)
(1.43278 -1.48492e-08 0)
(1.43278 -1.45131e-08 0)
(1.43278 -1.41959e-08 0)
(1.43278 -1.38893e-08 0)
(1.43278 -1.35842e-08 0)
(1.43278 -1.32849e-08 0)
(1.43278 -1.29932e-08 0)
(1.43278 -1.27288e-08 0)
(1.43278 -1.24362e-08 0)
(1.43278 -1.21581e-08 0)
(1.43278 -1.19274e-08 0)
(1.43278 -1.16665e-08 0)
(1.43278 -1.1382e-08 0)
(1.43278 -1.11601e-08 0)
(1.43278 -1.09544e-08 0)
(1.43278 -1.06971e-08 0)
(1.43278 -1.0454e-08 0)
(1.43278 -1.02604e-08 0)
(1.43278 -1.00483e-08 0)
(1.43278 -9.82173e-09 0)
(1.43278 -9.62917e-09 0)
(1.43278 -9.4152e-09 0)
(1.43278 -9.20865e-09 0)
(1.43278 -9.03384e-09 0)
(1.43278 -8.84845e-09 0)
(1.43278 -8.6442e-09 0)
(1.43278 -8.46502e-09 0)
(1.43278 -8.31575e-09 0)
(1.43278 -8.13698e-09 0)
(1.43278 -7.96678e-09 0)
(1.43278 -7.79854e-09 0)
(1.43278 -7.64445e-09 0)
(1.43278 -7.50884e-09 0)
(1.43278 -7.34386e-09 0)
(1.43278 -7.18822e-09 0)
(1.43278 -7.04686e-09 0)
(1.43278 -6.91743e-09 0)
(1.43278 -6.7757e-09 0)
(1.43278 -6.63824e-09 0)
(1.43278 -6.52584e-09 0)
(1.43278 -6.39252e-09 0)
(1.43278 -6.28282e-09 0)
(1.43278 -6.18664e-09 0)
(1.43278 -6.04296e-09 0)
(1.43278 -5.96003e-09 0)
(1.43278 -5.87156e-09 0)
(1.43278 -5.76575e-09 0)
(1.43278 -5.65109e-09 0)
(1.43278 -5.57237e-09 0)
(1.43278 -5.49729e-09 0)
(1.43278 -5.38433e-09 0)
(1.43278 -5.29477e-09 0)
(1.43278 -5.22922e-09 0)
(1.43278 -5.11587e-09 0)
(1.43278 -5.04223e-09 0)
(1.43278 -4.97191e-09 0)
(1.43278 -4.85745e-09 0)
(1.43278 -4.78134e-09 0)
(1.43278 -4.71197e-09 0)
(1.43278 -4.60525e-09 0)
(1.43278 -4.53233e-09 0)
(1.43278 -4.44925e-09 0)
(1.43278 -4.36491e-09 0)
(1.43278 -4.27782e-09 0)
(1.43278 -4.21266e-09 0)
(1.43278 -4.12513e-09 0)
(1.43278 -4.05453e-09 0)
(1.43278 -3.99075e-09 0)
(1.43278 -3.90752e-09 0)
(1.43278 -3.84166e-09 0)
(1.43278 -3.78683e-09 0)
(1.43278 -3.7077e-09 0)
(1.43278 -3.68188e-09 0)
(1.43278 -3.57625e-09 0)
(1.43278 -3.52024e-09 0)
(1.43278 -3.50521e-09 0)
(1.43278 -3.42276e-09 0)
(1.43278 -3.37868e-09 0)
(1.43278 -3.32077e-09 0)
(1.43278 -3.28927e-09 0)
(1.43278 -3.23926e-09 0)
(1.43278 -3.21398e-09 0)
(1.43278 -3.14881e-09 0)
(1.43278 -3.11209e-09 0)
(1.43278 -3.10199e-09 0)
(1.43278 -3.03788e-09 0)
(1.43278 -3.00596e-09 0)
(1.43278 -2.97384e-09 0)
(1.43278 -2.93016e-09 0)
(1.43278 -2.89514e-09 0)
(1.43278 -2.84409e-09 0)
(1.43278 -2.83932e-09 0)
(1.43278 -2.73579e-09 0)
(1.43278 -2.74865e-09 0)
(1.43278 -2.69783e-09 0)
(1.43278 -2.62286e-09 0)
(1.43278 -2.63114e-09 0)
(1.43278 -2.54371e-09 0)
(1.43278 -2.52051e-09 0)
(1.43278 -2.49383e-09 0)
(1.43278 -2.44368e-09 0)
(1.43278 -2.43416e-09 0)
(1.43278 -2.35818e-09 0)
(1.43278 -2.34711e-09 0)
(1.43278 -2.31705e-09 0)
(1.43278 -2.30124e-09 0)
(1.43278 -2.26602e-09 0)
(1.43278 -2.20451e-09 0)
(1.43278 -2.19894e-09 0)
(1.43278 -2.17043e-09 0)
(1.43278 -2.14596e-09 0)
(1.43278 -2.12038e-09 0)
(1.43278 -2.0768e-09 0)
(1.43278 -2.06105e-09 0)
(1.43278 -2.01879e-09 0)
(1.43278 -2.0037e-09 0)
(1.43278 -1.99671e-09 0)
(1.43278 -1.93663e-09 0)
(1.43278 -1.94364e-09 0)
(1.43278 -1.89988e-09 0)
(1.43278 -1.86821e-09 0)
(1.43278 -1.83236e-09 0)
(1.43278 -1.83697e-09 0)
(1.43278 -1.78104e-09 0)
(1.43278 -1.78721e-09 0)
(1.43278 -1.7375e-09 0)
(1.43278 -1.73605e-09 0)
(1.43278 -1.70958e-09 0)
(1.43278 -1.69912e-09 0)
(1.43278 -1.65848e-09 0)
(1.43278 -1.66155e-09 0)
(1.43278 -1.66442e-09 0)
(1.43278 -1.60733e-09 0)
(1.43278 -1.63807e-09 0)
(1.43278 -1.58049e-09 0)
(1.43278 -1.66021e-09 0)
(1.43278 -1.53859e-09 0)
(1.43278 -1.72222e-09 0)
(1.43278 -1.50454e-09 0)
(1.43278 -1.88187e-09 0)
(1.43278 -1.53492e-09 0)
(1.43278 -2.07245e-09 0)
(1.43278 -1.51388e-09 0)
(1.43278 -1.82378e-09 0)
(1.43278 -8.43305e-10 0)
(1.43278 1.54647e-09 0)
(1.00001 -0.000273701 0)
(1.00006 -0.000823101 0)
(1.00018 -0.00137475 0)