/*--------------------------------*- C++ -*----------------------------------*\
  =========                 |
  \\      /  F ield         | OpenFOAM: The Open Source CFD Toolbox
   \\    /   O peration     | Website:  https://openfoam.org
    \\  /    A nd           | Version:  7
     \\/     M anipulation  |
\*---------------------------------------------------------------------------*/
FoamFile
{
    version     2.0;
    format      ascii;
    class       volScalarField;
    location    "2.5";
    object      p;
}
// * * * * * * * * * * * * * * * * * * * * * * * * * * * * * * * * * * * * * //

dimensions      [0 2 -2 0 0 0 0];

internalField   nonuniform List<scalar> 
1500
(
2.01226
2.00135
1.98041
1.95217
1.92069
1.88885
1.85788
1.82826
1.80032
1.77433
1.75034
1.72821
1.70766
1.68841
1.67022
1.65291
1.63632
1.62036
1.60494
1.59001
1.57551
1.56143
1.54773
1.53439
1.52136
1.5086
1.49605
1.48366
1.47139
1.45919
1.44704
1.43492
1.42282
1.41071
1.39861
1.38651
1.3744
1.36229
1.35019
1.33808
1.32597
1.31386
1.30175
1.28964
1.27753
1.26542
1.25331
1.2412
1.22909
1.21698
1.20487
1.19277
1.18066
1.16855
1.15644
1.14433
1.13222
1.12011
1.108
1.09589
1.08378
1.07167
1.05956
1.04745
1.03534
1.02324
1.01113
0.999016
0.986907
0.974798
0.962689
0.950579
0.93847
0.926361
0.914251
0.902142
0.890033
0.877924
0.865814
0.853705
0.841596
0.829486
0.817377
0.805268
0.793159
0.781049
0.76894
0.756831
0.744721
0.732612
0.720503
0.708393
0.696284
0.684175
0.672066
0.659956
0.647847
0.635738
0.623628
0.611519
0.59941
0.587301
0.575191
0.563082
0.550973
0.538863
0.526754
0.514645
0.502536
0.490426
0.478317
0.466208
0.454098
0.441989
0.42988
0.417771
0.405661
0.393552
0.381443
0.369333
0.357224
0.345115
0.333005
0.320896
0.308787
0.296678
0.284568
0.272459
0.26035
0.24824
0.236131
0.224022
0.211913
0.199803
0.187694
0.175585
0.163475
0.151366
0.139257
0.127148
0.115038
0.102929
0.0908197
0.0787104
0.0666011
0.0544918
0.0423825
0.0302732
0.0181639
0.00605465
2.02421
2.01026
1.98515
1.95356
1.92016
1.88727
1.85561
1.82557
1.79751
1.77164
1.74793
1.72612
1.70589
1.68693
1.66899
1.65188
1.63546
1.61962
1.6043
1.58944
1.57501
1.56098
1.54734
1.53406
1.52109
1.50838
1.49588
1.48354
1.47131
1.45914
1.44702
1.43491
1.42281
1.41071
1.39861
1.38651
1.3744
1.36229
1.35019
1.33808
1.32597
1.31386
1.30175
1.28964
1.27753
1.26542
1.25331
1.2412
1.22909
1.21698
1.20487
1.19277
1.18066
1.16855
1.15644
1.14433
1.13222
1.12011
1.108
1.09589
1.08378
1.07167
1.05956
1.04745
1.03534
1.02324
1.01113
0.999016
0.986907
0.974798
0.962689
0.950579
0.93847
0.926361
0.914251
0.902142
0.890033
0.877924
0.865814
0.853705
0.841596
0.829486
0.817377
0.805268
0.793159
0.781049
0.76894
0.756831
0.744721
0.732612
0.720503
0.708393
0.696284
0.684175
0.672066
0.659956
0.647847
0.635738
0.623628
0.611519
0.59941
0.587301
0.575191
0.563082
0.550973
0.538863
0.526754
0.514645
0.502536
0.490426
0.478317
0.466208
0.454098
0.441989
0.42988
0.417771
0.405661
0.393552
0.381443
0.369333
0.357224
0.345115
0.333005
0.320896
0.308787
0.296678
0.284568
0.272459
0.26035
0.24824
0.236131
0.224022
0.211913
0.199803
0.187694
0.175585
0.163475
0.151366
0.139257
0.127148
0.115038
0.102929
0.0908197
0.0787104
0.0666011
0.0544918
0.0423825
0.0302732
0.0181639
0.00605465
2.05092
2.0278
1.99301
1.95509
1.9184
1.88359
1.85068
1.82002
1.79197
1.76656
1.74351
1.72239
1.7028
1.6844
1.66693
1.65021
1.63408
1.61847
1.60332
1.58859
1.57427
1.56034
1.5468
1.53361
1.52074
1.50812
1.4957
1.48342
1.47123
1.4591
1.44699
1.4349
1.42281
1.41071
1.39861
1.38651
1.3744
1.3623
1.35019
1.33808
1.32597
1.31386
1.30175
1.28964
1.27753
1.26542
1.25331
1.2412
1.22909
1.21698
1.20487
1.19277
1.18066
1.16855
1.15644
1.14433
1.13222
1.12011
1.108
1.09589
1.08378
1.07167
1.05956
1.04745
1.03534
1.02324
1.01113
0.999016
0.986907
0.974798
0.962689
0.950579
0.93847
0.926361
0.914251
0.902142
0.890033
0.877924
0.865814
0.853705
0.841596
0.829486
0.817377
0.805268
0.793159
0.781049
0.76894
0.756831
0.744721
0.732612
0.720503
0.708393
0.696284
0.684175
0.672066
0.659956
0.647847
0.635738
0.623628
0.611519
0.59941
0.587301
0.575191
0.563082
0.550973
0.538863
0.526754
0.514645
0.502536
0.490426
0.478317
0.466208
0.454098
0.441989
0.42988
0.417771
0.405661
0.393552
0.381443
0.369333
0.357224
0.345115
0.333005
0.320896
0.308787
0.296678
0.284568
0.272459
0.26035
0.24824
0.236131
0.224022
0.211913
0.199803
0.187694
0.175585
0.163475
0.151366
0.139257
0.127148
0.115038
0.102929
0.0908197
0.0787104
0.0666011
0.0544918
0.0423825
0.0302732
0.0181639
0.00605465
2.09882
2.05285
2.00044
1.95446
1.91426
1.87706
1.84265
1.81166
1.78428
1.76003
1.73824
1.71826
1.69961
1.68197
1.66508
1.64879
1.633
1.61762
1.60264
1.58803
1.57381
1.55997
1.54651
1.53339
1.52057
1.508
1.49562
1.48337
1.4712
1.45908
1.44699
1.4349
1.42281
1.41071
1.39861
1.38651
1.3744
1.3623
1.35019
1.33808
1.32597
1.31386
1.30175
1.28964
1.27753
1.26542
1.25331
1.2412
1.22909
1.21698
1.20487
1.19277
1.18066
1.16855
1.15644
1.14433
1.13222
1.12011
1.108
1.09589
1.08378
1.07167
1.05956
1.04745
1.03534
1.02324
1.01113
0.999016
0.986907
0.974798
0.962689
0.950579
0.93847
0.926361
0.914251
0.902142
0.890033
0.877924
0.865814
0.853705
0.841596
0.829486
0.817377
0.805268
0.793159
0.781049
0.76894
0.756831
0.744721
0.732612
0.720503
0.708393
0.696284
0.684175
0.672066
0.659956
0.647847
0.635738
0.623628
0.611519
0.59941
0.587301
0.575191
0.563082
0.550973
0.538863
0.526754
0.514645
0.502536
0.490426
0.478317
0.466208
0.454098
0.441989
0.42988
0.417771
0.405661
0.393552
0.381443
0.369333
0.357224
0.345115
0.333005
0.320896
0.308787
0.296678
0.284568
0.272459
0.26035
0.24824
0.236131
0.224022
0.211913
0.199803
0.187694
0.175585
0.163475
0.151366
0.139257
0.127148
0.115038
0.102929
0.0908197
0.0787104
0.0666011
0.0544918
0.0423825
0.0302732
0.0181639
0.00605465
2.22389
2.10272
2.01441
1.95819
1.91361
1.87308
1.83657
1.80495
1.7779
1.75441
1.7335
1.71439
1.69654
1.67957
1.66322
1.64735
1.63188
1.61676
1.60198
1.58754
1.57347
1.55974
1.54637
1.53333
1.52056
1.50802
1.49565
1.4834
1.47123
1.45911
1.447
1.43491
1.42281
1.41072
1.39862
1.38651
1.3744
1.3623
1.35019
1.33808
1.32597
1.31386
1.30175
1.28964
1.27753
1.26542
1.25331
1.2412
1.22909
1.21698
1.20487
1.19277
1.18066
1.16855
1.15644
1.14433
1.13222
1.12011
1.108
1.09589
1.08378
1.07167
1.05956
1.04745
1.03534
1.02324
1.01113
0.999016
0.986907
0.974798
0.962689
0.950579
0.93847
0.926361
0.914251
0.902142
0.890033
0.877924
0.865814
0.853705
0.841596
0.829486
0.817377
0.805268
0.793159
0.781049
0.76894
0.756831
0.744721
0.732612
0.720503
0.708393
0.696284
0.684175
0.672066
0.659956
0.647847
0.635738
0.623628
0.611519
0.59941
0.587301
0.575191
0.563082
0.550973
0.538863
0.526754
0.514645
0.502536
0.490426
0.478317
0.466208
0.454098
0.441989
0.42988
0.417771
0.405661
0.393552
0.381443
0.369333
0.357224
0.345115
0.333005
0.320896
0.308787
0.296678
0.284568
0.272459
0.26035
0.24824
0.236131
0.224022
0.211913
0.199803
0.187694
0.175585
0.163475
0.151366
0.139257
0.127148
0.115038
0.102929
0.0908197
0.0787104
0.0666011
0.0544918
0.0423825
0.0302732
0.0181639
0.00605465
2.01226
2.00135
1.98041
1.95217
1.92069
1.88885
1.85788
1.82826
1.80032
1.77433
1.75034
1.72821
1.70766
1.68841
1.67022
1.65291
1.63632
1.62036
1.60494
1.59001
1.57551
1.56143
1.54773
1.53439
1.52136
1.5086
1.49605
1.48366
1.47139
1.45919
1.44704
1.43492
1.42282
1.41071
1.39861
1.38651
1.3744
1.36229
1.35019
1.33808
1.32597
1.31386
1.30175
1.28964
1.27753
1.26542
1.25331
1.2412
1.22909
1.21698
1.20487
1.19277
1.18066
1.16855
1.15644
1.14433
1.13222
1.12011
1.108
1.09589
1.08378
1.07167
1.05956
1.04745
1.03534
1.02324
1.01113
0.999016
0.986907
0.974798
0.962689
0.950579
0.93847
0.926361
0.914251
0.902142
0.890033
0.877924
0.865814
0.853705
0.841596
0.829486
0.817377
0.805268
0.793159
0.781049
0.76894
0.756831
0.744721
0.732612
0.720503
0.708393
0.696284
0.684175
0.672066
0.659956
0.647847
0.635738
0.623628
0.611519
0.59941
0.587301
0.575191
0.563082
0.550973
0.538863
0.526754
0.514645
0.502536
0.490426
0.478317
0.466208
0.454098
0.441989
0.42988
0.417771
0.405661
0.393552
0.381443
0.369333
0.357224
0.345115
0.333005
0.320896
0.308787
0.296678
0.284568
0.272459
0.26035
0.24824
0.236131
0.224022
0.211913
0.199803
0.187694
0.175585
0.163475
0.151366
0.139257
0.127148
0.115038
0.102929
0.0908197
0.0787104
0.0666011
0.0544918
0.0423825
0.0302732
0.0181639
0.00605465
2.02421
2.01026
1.98515
1.95356
1.92016
1.88727
1.85561
1.82557
1.79751
1.77164
1.74793
1.72612
1.70589
1.68693
1.66899
1.65188
1.63546
1.61962
1.6043
1.58944
1.57501
1.56098
1.54734
1.53406
1.52109
1.50838
1.49588
1.48354
1.47131
1.45914
1.44702
1.43491
1.42281
1.41071
1.39861
1.38651
1.3744
1.36229
1.35019
1.33808
1.32597
1.31386
1.30175
1.28964
1.27753
1.26542
1.25331
1.2412
1.22909
1.21698
1.20487
1.19277
1.18066
1.16855
1.15644
1.14433
1.13222
1.12011
1.108
1.09589
1.08378
1.07167
1.05956
1.04745
1.03534
1.02324
1.01113
0.999016
0.986907
0.974798
0.962689
0.950579
0.93847
0.926361
0.914251
0.902142
0.890033
0.877924
0.865814
0.853705
0.841596
0.829486
0.817377
0.805268
0.793159
0.781049
0.76894
0.756831
0.744721
0.732612
0.720503
0.708393
0.696284
0.684175
0.672066
0.659956
0.647847
0.635738
0.623628
0.611519
0.59941
0.587301
0.575191
0.563082
0.550973
0.538863
0.526754
0.514645
0.502536
0.490426
0.478317
0.466208
0.454098
0.441989
0.42988
0.417771
0.405661
0.393552
0.381443
0.369333
0.357224
0.345115
0.333005
0.320896
0.308787
0.296678
0.284568
0.272459
0.26035
0.24824
0.236131
0.224022
0.211913
0.199803
0.187694
0.175585
0.163475
0.151366
0.139257
0.127148
0.115038
0.102929
0.0908197
0.0787104
0.0666011
0.0544918
0.0423825
0.0302732
0.0181639
0.00605465
2.05092
2.0278
1.99301
1.95509
1.9184
1.88359
1.85068
1.82002
1.79197
1.76656
1.74351
1.72239
1.7028
1.6844
1.66693
1.65021
1.63408
1.61847
1.60332
1.58859
1.57427
1.56034
1.5468
1.53361
1.52074
1.50812
1.4957
1.48342
1.47123
1.4591
1.44699
1.4349
1.42281
1.41071
1.39861
1.38651
1.3744
1.3623
1.35019
1.33808
1.32597
1.31386
1.30175
1.28964
1.27753
1.26542
1.25331
1.2412
1.22909
1.21698
1.20487
1.19277
1.18066
1.16855
1.15644
1.14433
1.13222
1.12011
1.108
1.09589
1.08378
1.07167
1.05956
1.04745
1.03534
1.02324
1.01113
0.999016
0.986907
0.974798
0.962689
0.950579
0.93847
0.926361
0.914251
0.902142
0.890033
0.877924
0.865814
0.853705
0.841596
0.829486
0.817377
0.805268
0.793159
0.781049
0.76894
0.756831
0.744721
0.732612
0.720503
0.708393
0.696284
0.684175
0.672066
0.659956
0.647847
0.635738
0.623628
0.611519
0.59941
0.587301
0.575191
0.563082
0.550973
0.538863
0.526754
0.514645
0.502536
0.490426
0.478317
0.466208
0.454098
0.441989
0.42988
0.417771
0.405661
0.393552
0.381443
0.369333
0.357224
0.345115
0.333005
0.320896
0.308787
0.296678
0.284568
0.272459
0.26035
0.24824
0.236131
0.224022
0.211913
0.199803
0.187694
0.175585
0.163475
0.151366
0.139257
0.127148
0.115038
0.102929
0.0908197
0.0787104
0.0666011
0.0544918
0.0423825
0.0302732
0.0181639
0.00605465
2.09882
2.05285
2.00044
1.95446
1.91426
1.87706
1.84265
1.81166
1.78428
1.76003
1.73824
1.71826
1.69961
1.68197
1.66508
1.64879
1.633
1.61762
1.60264
1.58803
1.57381
1.55997
1.54651
1.53339
1.52057
1.508
1.49562
1.48337
1.4712
1.45908
1.44699
1.4349
1.42281
1.41071
1.39861
1.38651
1.3744
1.3623
1.35019
1.33808
1.32597
1.31386
1.30175
1.28964
1.27753
1.26542
1.25331
1.2412
1.22909
1.21698
1.20487
1.19277
1.18066
1.16855
1.15644
1.14433
1.13222
1.12011
1.108
1.09589
1.08378
1.07167
1.05956
1.04745
1.03534
1.02324
1.01113
0.999016
0.986907
0.974798
0.962689
0.950579
0.93847
0.926361
0.914251
0.902142
0.890033
0.877924
0.865814
0.853705
0.841596
0.829486
0.817377
0.805268
0.793159
0.781049
0.76894
0.756831
0.744721
0.732612
0.720503
0.708393
0.696284
0.684175
0.672066
0.659956
0.647847
0.635738
0.623628
0.611519
0.59941
0.587301
0.575191
0.563082
0.550973
0.538863
0.526754
0.514645
0.502536
0.490426
0.478317
0.466208
0.454098
0.441989
0.42988
0.417771
0.405661
0.393552
0.381443
0.369333
0.357224
0.345115
0.333005
0.320896
0.308787
0.296678
0.284568
0.272459
0.26035
0.24824
0.236131
0.224022
0.211913
0.199803
0.187694
0.175585
0.163475
0.151366
0.139257
0.127148
0.115038
0.102929
0.0908197
0.0787104
0.0666011
0.0544918
0.0423825
0.0302732
0.0181639
0.00605465
2.22389
2.10272
2.01441
1.95819
1.91361
1.87308
1.83657
1.80495
1.7779
1.75441
1.7335
1.71439
1.69654
1.67957
1.66322
1.64735
1.63188
1.61676
1.60198
1.58754
1.57347
1.55974
1.54637
1.53333
1.52056
1.50802
1.49565
1.4834
1.47123
1.45911
1.447
1.43491
1.42281
1.41072
1.39862
1.38651
1.3744
1.3623
1.35019
1.33808
1.32597
1.31386
1.30175
1.28964
1.27753
1.26542
1.25331
1.2412
1.22909
1.21698
1.20487
1.19277
1.18066
1.16855
1.15644
1.14433
1.13222
1.12011
1.108
1.09589
1.08378
1.07167
1.05956
1.04745
1.03534
1.02324
1.01113
0.999016
0.986907
0.974798
0.962689
0.950579
0.93847
0.926361
0.914251
0.902142
0.890033
0.877924
0.865814
0.853705
0.841596
0.829486
0.817377
0.805268
0.793159
0.781049
0.76894
0.756831
0.744721
0.732612
0.720503
0.708393
0.696284
0.684175
0.672066
0.659956
0.647847
0.635738
0.623628
0.611519
0.59941
0.587301
0.575191
0.563082
0.550973
0.538863
0.526754
0.514645
0.502536
0.490426
0.478317
0.466208
0.454098
0.441989
0.42988
0.417771
0.405661
0.393552
0.381443
0.369333
0.357224
0.345115
0.333005
0.320896
0.308787
0.296678
0.284568
0.272459
0.26035
0.24824
0.236131
0.224022
0.211913
0.199803
0.187694
0.175585
0.163475
0.151366
0.139257
0.127148
0.115038
0.102929
0.0908197
0.0787104
0.0666011
0.0544918
0.0423825
0.0302732
0.0181639
0.00605465
)
;

boundaryField
{
    inlet
    {
        type            zeroGradient;
    }
    outlet
    {
        type            fixedValue;
        value           uniform 0;
    }
    top
    {
        type            zeroGradient;
    }
    bottom
    {
        type            zeroGradient;
    }
    defaultFaces
    {
        type            empty;
    }
}


// ************************************************************************* //
