/*--------------------------------*- C++ -*----------------------------------*\
  =========                 |
  \\      /  F ield         | OpenFOAM: The Open Source CFD Toolbox
   \\    /   O peration     | Website:  https://openfoam.org
    \\  /    A nd           | Version:  7
     \\/     M anipulation  |
\*---------------------------------------------------------------------------*/
FoamFile
{
    version     2.0;
    format      ascii;
    class       surfaceScalarField;
    location    "2.5";
    object      phi;
}
// * * * * * * * * * * * * * * * * * * * * * * * * * * * * * * * * * * * * * //

dimensions      [0 3 -1 0 0 0 0];

internalField   nonuniform List<scalar> 
2840
(
0.0100654
-6.53929e-05
1.21949e-14
0.0102509
-0.000185528
-1.92206e-13
0.0105092
-0.000258239
-1.2105e-12
0.0107948
-0.000285622
-7.314e-13
0.0110849
-0.000290123
-1.14354e-13
0.0113689
-0.000284004
-4.5198e-13
0.0116387
-0.000269815
-7.77681e-13
0.0118877
-0.000248941
-2.0777e-13
0.0121124
-0.000224767
7.7725e-13
0.0123135
-0.000201104
1.28714e-12
0.0124931
-0.000179604
6.31856e-13
0.0126538
-0.000160701
-6.94853e-14
0.0127981
-0.000144261
-3.65694e-13
0.012928
-0.000129924
-7.31874e-13
0.0130453
-0.000117304
-8.77028e-13
0.0131514
-0.000106074
-7.59232e-13
0.0132474
-9.59624e-05
-1.15965e-12
0.0133341
-8.66974e-05
-1.14391e-12
0.013412
-7.79648e-05
-1.11306e-12
0.0134815
-6.94349e-05
-1.00385e-12
0.0135423
-6.08511e-05
-2.35896e-13
0.0135944
-5.21167e-05
-1.53424e-13
0.0136378
-4.33315e-05
-5.3803e-13
0.0136725
-3.47601e-05
6.53282e-14
0.0136993
-2.67502e-05
9.93002e-13
0.0137189
-1.96384e-05
1.38357e-12
0.0137326
-1.36706e-05
1.25561e-12
0.0137415
-8.95661e-06
1.09656e-13
0.013747
-5.46517e-06
-1.03169e-12
0.0137501
-3.05284e-06
-2.02524e-12
0.0137516
-1.5087e-06
-3.00757e-12
0.0137522
-6.0666e-07
-3.51128e-12
0.0137523
-1.39085e-07
-1.83406e-12
0.0137522
6.70426e-08
6.25557e-13
0.0137521
1.23966e-07
2.49366e-12
0.013752
1.14481e-07
1.37332e-12
0.0137519
8.25665e-08
-5.91319e-13
0.0137519
5.01918e-08
-2.21744e-12
0.0137518
2.56103e-08
-2.41586e-12
0.0137518
9.98031e-09
-1.7334e-12
0.0137518
1.58284e-09
-1.18307e-12
0.0137518
-2.23807e-09
-9.40065e-13
0.0137518
-3.19095e-09
-8.08171e-13
0.0137518
-2.90164e-09
-3.48034e-13
0.0137518
-2.19208e-09
3.26063e-13
0.0137518
-1.47469e-09
1.98893e-13
0.0137518
-9.06854e-10
-1.39034e-13
0.0137518
-5.14244e-10
3.00614e-13
0.0137518
-2.68436e-10
7.09098e-13
0.0137518
-1.26964e-10
7.04275e-13
0.0137518
-5.17733e-11
4.17007e-13
0.0137518
-1.56102e-11
3.90896e-13
0.0137518
-2.53848e-13
5.54495e-13
0.0137518
4.61975e-12
3.76939e-13
0.0137518
4.44676e-12
8.59491e-14
0.0137518
3.03786e-12
-2.64205e-13
0.0137518
2.12772e-12
-3.47474e-13
0.0137518
1.88513e-12
-2.00416e-13
0.0137518
1.49178e-12
2.42903e-13
0.0137518
1.16504e-12
4.53296e-13
0.0137518
1.05188e-12
5.27766e-13
0.0137518
9.88439e-13
1.28903e-13
0.0137518
1.39875e-12
-4.63019e-13
0.0137518
1.7458e-12
-7.9894e-13
0.0137518
2.06276e-12
-6.24236e-13
0.0137518
2.35297e-12
-6.75283e-13
0.0137518
2.27261e-12
-7.21634e-13
0.0137518
1.67704e-12
-5.02578e-13
0.0137518
8.62228e-13
5.58232e-14
0.0137518
-1.08852e-13
7.00209e-13
0.0137518
-1.17901e-12
1.35393e-12
0.0137518
-1.82001e-12
1.52216e-12
0.0137518
-2.46895e-12
1.11459e-12
0.0137518
-2.99811e-12
3.80997e-13
0.0137518
-2.74173e-12
-2.36118e-13
0.0137518
-1.8798e-12
-3.24238e-13
0.0137518
-7.76483e-13
6.29229e-14
0.0137518
1.67621e-13
4.63422e-13
0.0137518
5.32396e-13
8.14559e-13
0.0137518
5.4031e-13
5.58207e-13
0.0137518
4.70548e-13
6.1599e-14
0.0137518
5.97936e-13
-4.32215e-13
0.0137518
8.12482e-13
-6.60291e-13
0.0137518
1.10836e-12
-4.74616e-13
0.0137518
9.68917e-13
-1.13393e-13
0.0137518
3.72995e-13
7.43925e-14
0.0137518
-3.24978e-13
1.86551e-14
0.0137518
-1.02085e-12
-3.25417e-13
0.0137518
-1.13559e-12
-5.17025e-13
0.0137518
-6.04763e-13
-2.87893e-13
0.0137518
-1.38382e-14
1.9266e-13
0.0137518
6.14057e-13
6.68735e-13
0.0137518
7.12043e-13
6.76517e-13
0.0137518
3.97381e-13
2.37086e-13
0.0137518
7.95452e-14
-4.89243e-13
0.0137518
9.16808e-14
-8.33548e-13
0.0137518
4.59585e-13
-5.8741e-13
0.0137518
1.01116e-12
-6.18529e-14
0.0137518
1.19581e-12
2.30687e-13
0.0137518
8.76963e-13
-2.01907e-13
0.0137518
3.65404e-13
-9.81171e-13
0.0137518
4.62201e-14
-1.63802e-12
0.0137518
1.04123e-13
-1.40708e-12
0.0137518
2.12935e-13
-4.39579e-13
0.0137518
1.18997e-13
4.10746e-13
0.0137518
-2.59518e-13
4.31166e-13
0.0137518
-6.77268e-13
-3.13829e-13
0.0137518
-3.3512e-13
-9.23747e-13
0.0137518
1.05382e-13
-6.80472e-13
0.0137518
9.5633e-13
2.6728e-13
0.0137518
6.03272e-13
1.00414e-12
0.0137518
-5.90589e-13
9.28393e-13
0.0137518
-1.6063e-12
4.37118e-13
0.0137518
-1.71747e-12
5.77755e-13
0.0137518
-1.00548e-12
1.59685e-12
0.0137518
-6.61591e-13
2.6117e-12
0.0137518
-8.29314e-13
2.27866e-12
0.0137518
-1.1704e-12
1.2704e-12
0.0137518
-5.48565e-13
4.66398e-13
0.0137518
5.09836e-13
3.72949e-13
0.0137518
6.13566e-13
1.00428e-13
0.0137518
2.71216e-13
-1.16543e-12
0.0137518
-1.75736e-14
-2.76943e-12
0.0137518
1.15407e-12
-3.18136e-12
0.0137518
3.01088e-12
-1.70652e-12
0.0137518
3.04459e-12
-5.97614e-13
0.0137518
6.17537e-13
-2.78626e-13
0.0137518
-1.1114e-12
-2.9427e-13
0.0137518
-5.66319e-13
1.99632e-13
0.0137518
5.92993e-14
5.67373e-13
0.0137518
-4.25026e-13
1.76372e-13
0.0137518
-1.75748e-12
-3.44221e-13
0.0137518
-1.40772e-12
-4.87035e-14
0.0137518
2.84413e-13
4.25403e-13
0.0137518
1.42797e-13
1.63287e-13
0.0137518
-4.45717e-13
5.46594e-13
0.0137518
-6.21471e-13
2.35613e-12
0.0137518
1.83542e-13
1.67818e-12
0.0137518
6.56299e-13
-7.03309e-13
0.0137518
-9.82746e-13
-9.03633e-13
0.0137518
9.469e-13
2.93435e-13
0.0137518
6.97313e-13
2.36379e-13
0.0137518
1.16056e-12
-1.14497e-12
0.0137518
1.00263e-12
-1.92698e-12
0.0137518
3.24881e-12
-1.16587e-13
0.0137518
7.56619e-13
-1.03616e-12
0.0137518
7.62718e-12
4.81112e-13
0.0137518
2.90004e-12
-1.21474e-12
0.0137518
1.88713e-11
-1.43528e-12
-9.90159e-12
-3.3076e-12
0.0100904
-0.00015581
0.0103203
-0.000415449
0.0106081
-0.000546034
0.010907
-0.000584462
0.0111993
-0.000582484
0.0114748
-0.000559516
0.0117243
-0.000519286
0.0119426
-0.00046724
0.0121299
-0.000412063
0.0122891
-0.000360279
0.0124239
-0.000314448
0.0125383
-0.000275041
0.0126355
-0.000241533
0.0127187
-0.000213047
0.01279
-0.000188662
0.0128515
-0.000167571
0.0129046
-0.000149087
0.0129505
-0.000132525
0.0129897
-0.000117175
0.0130226
-0.000102396
0.0130496
-8.77814e-05
0.0130707
-7.32574e-05
0.0130865
-5.90855e-05
0.0130975
-4.57476e-05
0.0131045
-3.37779e-05
0.0131085
-2.36098e-05
0.0131103
-1.54783e-05
0.0131107
-9.38774e-06
0.0131104
-5.1435e-06
0.0131097
-2.41859e-06
0.0131091
-8.3319e-07
0.0131085
-2.98131e-08
0.0131081
2.93403e-07
0.0131078
3.5654e-07
0.0131076
3.01559e-07
0.0131075
2.12558e-07
0.0131074
1.30151e-07
0.0131074
6.88434e-08
0.0131074
2.9609e-08
0.0131074
7.7386e-09
0.0131074
-2.41193e-09
0.0131074
-5.839e-09
0.0131074
-5.9068e-09
0.0131074
-4.69597e-09
0.0131074
-3.26747e-09
0.0131074
-2.06349e-09
0.0131074
-1.19825e-09
0.0131074
-6.39845e-10
0.0131074
-3.10311e-10
0.0131074
-1.31743e-10
0.0131074
-4.36828e-11
0.0131074
-5.08239e-12
0.0131074
8.5337e-12
0.0131074
1.04541e-11
0.0131074
8.60113e-12
0.0131074
6.53337e-12
0.0131074
5.17235e-12
0.0131074
4.35915e-12
0.0131074
3.61623e-12
0.0131074
2.84669e-12
0.0131074
2.03522e-12
0.0131074
1.55522e-12
0.0131074
1.8716e-12
0.0131074
2.82316e-12
0.0131074
3.55319e-12
0.0131074
3.49184e-12
0.0131074
2.63878e-12
0.0131074
1.3328e-12
0.0131074
-1.5036e-13
0.0131074
-1.63601e-12
0.0131074
-2.96531e-12
0.0131074
-4.27901e-12
0.0131074
-4.90548e-12
0.0131074
-4.64098e-12
0.0131074
-3.27947e-12
0.0131074
-1.35543e-12
0.0131074
2.97041e-13
0.0131074
1.58467e-12
0.0131074
1.82998e-12
0.0131074
1.49281e-12
0.0131074
1.16697e-12
0.0131074
1.20153e-12
0.0131074
1.46128e-12
0.0131074
1.37413e-12
0.0131074
7.41985e-13
0.0131074
-2.26111e-13
0.0131074
-1.4675e-12
0.0131074
-1.8575e-12
0.0131074
-1.12674e-12
0.0131074
-6.60539e-14
0.0131074
1.19811e-12
0.0131074
1.42926e-12
0.0131074
8.40918e-13
0.0131074
-4.46747e-14
0.0131074
-5.2117e-13
0.0131074
-2.80044e-13
0.0131074
6.87308e-13
0.0131074
9.39231e-13
0.0131074
6.87438e-13
0.0131074
-1.03297e-13
0.0131074
-9.01966e-13
0.0131074
-4.354e-13
0.0131074
6.14555e-13
0.0131074
1.45327e-12
0.0131074
9.43803e-13
0.0131074
-4.04779e-13
0.0131074
-1.05496e-12
0.0131074
-8.18701e-13
0.0131074
8.45416e-13
0.0131074
1.29628e-12
0.0131074
5.85194e-13
0.0131074
-1.15818e-12
0.0131074
-1.56814e-12
0.0131074
-8.146e-13
0.0131074
1.77762e-13
0.0131074
-2.55185e-13
0.0131074
-1.72278e-12
0.0131074
-2.02438e-12
0.0131074
-7.56461e-13
0.0131074
7.19218e-13
0.0131074
-1.5518e-13
0.0131074
-1.22305e-12
0.0131074
-5.11742e-13
0.0131074
3.65842e-12
0.0131074
4.64863e-12
0.0131074
2.50563e-12
0.0131074
-1.76266e-12
0.0131074
-2.1931e-12
0.0131074
6.67715e-15
0.0131074
-1.61e-13
0.0131074
-1.84069e-12
0.0131074
-1.80753e-12
0.0131074
7.6663e-13
0.0131074
1.96032e-12
0.0131074
6.3342e-13
0.0131074
1.41185e-12
0.0131074
6.91899e-13
0.0131074
-1.04806e-12
0.0131074
-5.89963e-13
0.0131074
-5.63058e-13
0.0131074
-1.19787e-12
0.0131074
-3.28738e-12
0.0131074
1.15384e-12
0.0131074
3.52737e-12
0.0131074
8.89904e-12
0.0131074
1.74801e-12
0.0131074
1.29873e-11
0.0131074
8.97771e-12
0.0131074
2.98158e-11
-1.96698e-11
0.0101711
-0.000326944
0.0104732
-0.000717559
0.0107747
-0.00084747
0.0110406
-0.000850352
0.0112685
-0.00081045
0.0114512
-0.000742219
0.0115865
-0.000654554
0.0116797
-0.000560435
0.0117388
-0.00047117
0.0117714
-0.000392848
0.011784
-0.000327088
0.0117822
-0.000273202
0.0117703
-0.000229606
0.0117517
-0.000194519
0.0117292
-0.000166156
0.0117046
-0.000142921
0.011679
-0.000123561
0.0116534
-0.000106892
0.0116281
-9.18997e-05
0.0116036
-7.78467e-05
0.0115802
-6.43726e-05
0.0115584
-5.15033e-05
0.0115389
-3.95464e-05
0.0115221
-2.89209e-05
0.0115082
-1.99697e-05
0.0114975
-1.28622e-05
0.0114896
-7.57923e-06
0.0114841
-3.93123e-06
0.0114806
-1.62731e-06
0.0114785
-3.28128e-07
0.0114774
2.98571e-07
0.0114769
4.96398e-07
0.0114767
4.79387e-07
0.0114767
3.74319e-07
0.0114767
2.53828e-07
0.0114768
1.52276e-07
0.0114768
7.98263e-08
0.0114769
3.43814e-08
0.0114769
9.31452e-09
0.0114769
-2.63416e-09
0.0114769
-6.66096e-09
0.0114769
-6.80915e-09
0.0114769
-5.44794e-09
0.0114769
-3.80754e-09
0.0114769
-2.41345e-09
0.0114769
-1.40672e-09
0.0114769
-7.54361e-10
0.0114769
-3.6705e-10
0.0114769
-1.55524e-10
0.0114769
-5.06077e-11
0.0114769
-5.27981e-12
0.0114769
1.08655e-11
0.0114769
1.3439e-11
0.0114769
1.14088e-11
0.0114769
8.58564e-12
0.0114769
6.26884e-12
0.0114769
4.54371e-12
0.0114769
3.24659e-12
0.0114769
2.30023e-12
0.0114769
1.83534e-12
0.0114769
1.73593e-12
0.0114769
1.85189e-12
0.0114769
2.38702e-12
0.0114769
2.94278e-12
0.0114769
2.88766e-12
0.0114769
1.88295e-12
0.0114769
3.9633e-13
0.0114769
-8.12256e-13
0.0114769
-1.33029e-12
0.0114769
-1.43299e-12
0.0114769
-1.84122e-12
0.0114769
-2.39458e-12
0.0114769
-2.74127e-12
0.0114769
-2.5177e-12
0.0114769
-1.64189e-12
0.0114769
-5.55208e-13
0.0114769
3.83929e-13
0.0114769
7.4672e-13
0.0114769
5.88639e-13
0.0114769
3.49438e-13
0.0114769
5.32782e-13
0.0114769
9.96365e-13
0.0114769
1.44858e-12
0.0114769
1.37922e-12
0.0114769
6.23806e-13
0.0114769
-5.22043e-13
0.0114769
-1.38389e-12
0.0114769
-1.39591e-12
0.0114769
-5.76977e-13
0.0114769
5.37431e-13
0.0114769
1.24504e-12
0.0114769
1.07242e-12
0.0114769
3.1778e-13
0.0114769
-2.81222e-13
0.0114769
-2.74776e-13
0.0114769
2.69538e-13
0.0114769
7.66773e-13
0.0114769
5.94846e-13
0.0114769
-2.70715e-13
0.0114769
-1.07563e-12
0.0114769
-1.06149e-12
0.0114769
-7.79299e-14
0.0114769
1.14946e-12
0.0114769
1.50749e-12
0.0114769
6.21305e-13
0.0114769
-5.4778e-13
0.0114769
-1.02175e-12
0.0114769
-4.15986e-13
0.0114769
3.90473e-13
0.0114769
4.24738e-13
0.0114769
-2.97617e-13
0.0114769
-7.11778e-13
0.0114769
-1.00068e-13
0.0114769
8.40505e-13
0.0114769
8.2272e-13
0.0114769
-5.80471e-13
0.0114769
-1.79754e-12
0.0114769
-1.69639e-12
0.0114769
-5.5557e-13
0.0114769
-2.91244e-13
0.0114769
-9.32842e-13
0.0114769
-7.85604e-13
0.0114769
1.52517e-12
0.0114769
3.50969e-12
0.0114769
2.75741e-12
0.0114769
4.73954e-14
0.0114769
-1.85492e-12
0.0114769
-6.85187e-13
0.0114769
-2.09999e-13
0.0114769
-1.5959e-12
0.0114769
-1.4794e-12
0.0114769
5.8639e-14
0.0114769
1.93378e-12
0.0114769
1.48689e-12
0.0114769
8.78488e-13
0.0114769
1.43384e-12
0.0114769
2.81253e-13
0.0114769
-1.03386e-12
0.0114769
-1.32659e-12
0.0114769
-2.30931e-12
0.0114769
-1.15772e-12
0.0114769
2.29434e-12
0.0114769
2.83189e-12
0.0114769
-2.8404e-12
0.0114769
4.43036e-12
0.0114769
2.26965e-12
0.0114769
1.46417e-11
0.0114769
1.5131e-11
0.0114769
4.70241e-11
-2.23169e-11
0.0102853
-0.000612233
0.010502
-0.000934222
0.010561
-0.000906483
0.0105323
-0.00082171
0.0104404
-0.000718537
0.0102935
-0.000595289
0.0101154
-0.000476444
0.00992543
-0.000370491
0.00973643
-0.00028217
0.00955594
-0.000212357
0.00938817
-0.000159326
0.00923523
-0.000120261
0.00909773
-9.20993e-05
0.00897524
-7.20329e-05
0.00886681
-5.77289e-05
0.00877128
-4.73843e-05
0.00868737
-3.96551e-05
0.00861403
-3.35506e-05
0.00855051
-2.83803e-05
0.00849639
-2.37291e-05
0.00845143
-1.94059e-05
0.00841525
-1.53313e-05
0.00838727
-1.15602e-05
0.00836661
-8.26283e-06
0.00835218
-5.54483e-06
0.00834276
-3.44073e-06
0.0083371
-1.92031e-06
0.00833408
-9.04216e-07
0.00833273
-2.81777e-07
0.00833237
3.72329e-08
0.00833251
1.54083e-07
0.00833282
1.82832e-07
0.00833314
1.60835e-07
0.0083334
1.1968e-07
0.00833357
7.72688e-08
0.00833368
4.38101e-08
0.00833374
2.11742e-08
0.00833377
7.63737e-09
0.00833378
3.77969e-10
0.00833378
-2.0314e-09
0.00833377
-2.78692e-09
0.00833377
-2.54645e-09
0.00833376
-1.94965e-09
0.00833376
-1.32444e-09
0.00833376
-8.14033e-10
0.00833376
-4.58315e-10
0.00833376
-2.35564e-10
0.00833376
-1.08085e-10
0.00833376
-4.12618e-11
0.00833376
-9.48767e-12
0.00833376
2.57791e-12
0.00833376
5.86382e-12
0.00833376
6.07359e-12
0.00833376
5.07112e-12
0.00833376
3.7942e-12
0.00833376
2.62488e-12
0.00833376
1.67821e-12
0.00833376
1.08387e-12
0.00833376
7.97206e-13
0.00833376
9.63767e-13
0.00833376
1.4361e-12
0.00833376
1.79324e-12
0.00833376
1.64116e-12
0.00833376
8.15045e-13
0.00833376
-1.8583e-13
0.00833376
-1.10158e-12
0.00833376
-1.54325e-12
0.00833376
-1.20304e-12
0.00833376
-3.48445e-13
0.00833376
4.77897e-13
0.00833376
7.50244e-13
0.00833376
4.31598e-13
0.00833376
-1.71719e-13
0.00833376
-6.24038e-13
0.00833376
-7.99407e-13
0.00833376
-8.08002e-13
0.00833376
-7.56932e-13
0.00833376
-7.53441e-13
0.00833376
-6.39989e-13
0.00833376
-2.72501e-13
0.00833376
3.81053e-13
0.00833376
9.37062e-13
0.00833376
1.24229e-12
0.00833376
1.03134e-12
0.00833376
3.85139e-13
0.00833376
-3.05618e-13
0.00833376
-6.67764e-13
0.00833376
-5.05742e-13
0.00833376
-1.94806e-14
0.00833376
5.27975e-13
0.00833376
7.51697e-13
0.00833376
5.80339e-13
0.00833376
2.44644e-13
0.00833376
4.55922e-14
0.00833376
4.97341e-14
0.00833376
8.60799e-14
0.00833376
-7.79436e-14
0.00833376
-4.13442e-13
0.00833376
-9.50794e-13
0.00833376
-1.00759e-12
0.00833376
-4.90858e-13
0.00833376
3.48396e-13
0.00833376
9.72932e-13
0.00833376
9.1062e-13
0.00833376
2.64755e-13
0.00833376
-3.7255e-13
0.00833376
-6.17444e-13
0.00833376
-3.95015e-13
0.00833376
-8.8567e-15
0.00833376
2.07644e-13
0.00833376
3.7749e-13
0.00833376
5.62219e-13
0.00833376
9.97747e-13
0.00833376
8.12177e-13
0.00833376
1.20148e-13
0.00833376
-9.68475e-13
0.00833376
-1.43325e-12
0.00833376
-1.09684e-12
0.00833376
-6.07369e-13
0.00833376
-5.52367e-13
0.00833376
-5.08272e-13
0.00833376
8.20809e-14
0.00833376
1.13154e-12
0.00833376
1.59317e-12
0.00833376
3.08086e-13
0.00833376
-7.16982e-13
0.00833376
-7.89574e-13
0.00833376
-4.97766e-14
0.00833376
-3.50146e-13
0.00833376
-7.83007e-13
0.00833376
-2.74497e-13
0.00833376
9.68751e-13
0.00833376
1.77481e-12
0.00833376
8.65508e-13
0.00833376
2.311e-13
0.00833376
6.31514e-13
0.00833376
2.46461e-13
0.00833376
-7.35684e-13
0.00833376
-1.40939e-12
0.00833376
-9.47765e-14
0.00833376
-1.20937e-12
0.00833376
-3.19581e-12
0.00833376
-4.07475e-13
0.00833376
2.90347e-12
0.00833376
3.75794e-12
0.00833376
3.43564e-12
0.00833376
8.26719e-12
0.00833376
1.11549e-11
0.00833376
3.57085e-11
-1.41414e-11
0.00938777
0.00845355
0.00754706
0.00672535
0.00600682
0.00541153
0.00493508
0.00456459
0.00428242
0.00407007
0.00391074
0.00379048
0.00369838
0.00362635
0.00356862
0.00352123
0.00348158
0.00344803
0.00341965
0.00339592
0.00337651
0.00336118
0.00334962
0.00334136
0.00333581
0.00333237
0.00333045
0.00332955
0.00332927
0.0033293
0.00332946
0.00332964
0.0033298
0.00332992
0.00333
0.00333004
0.00333006
0.00333007
0.00333007
0.00333007
0.00333007
0.00333006
0.00333006
0.00333006
0.00333006
0.00333006
0.00333006
0.00333006
0.00333006
0.00333006
0.00333006
0.00333006
0.00333006
0.00333006
0.00333006
0.00333006
0.00333006
0.00333006
0.00333006
0.00333006
0.00333006
0.00333006
0.00333006
0.00333006
0.00333006
0.00333006
0.00333006
0.00333006
0.00333006
0.00333006
0.00333006
0.00333006
0.00333006
0.00333006
0.00333006
0.00333006
0.00333006
0.00333006
0.00333006
0.00333006
0.00333006
0.00333006
0.00333006
0.00333006
0.00333006
0.00333006
0.00333006
0.00333006
0.00333006
0.00333006
0.00333006
0.00333006
0.00333006
0.00333006
0.00333006
0.00333006
0.00333006
0.00333006
0.00333006
0.00333006
0.00333006
0.00333006
0.00333006
0.00333006
0.00333006
0.00333006
0.00333006
0.00333006
0.00333006
0.00333006
0.00333006
0.00333006
0.00333006
0.00333006
0.00333006
0.00333006
0.00333006
0.00333006
0.00333006
0.00333006
0.00333006
0.00333006
0.00333006
0.00333006
0.00333006
0.00333006
0.00333006
0.00333006
0.00333006
0.00333006
0.00333006
0.00333006
0.00333006
0.00333006
0.00333006
0.00333006
0.00333006
0.00333006
0.00333006
0.00333006
0.00333006
0.00333006
0.00333006
0.00333006
0.00333006
0.00333006
0.00333006
0.00333006
0.00333006
0.0100654
-6.53929e-05
0.0102509
-0.000185528
0.0105092
-0.000258239
0.0107948
-0.000285622
0.0110849
-0.000290123
0.0113689
-0.000284004
0.0116387
-0.000269815
0.0118877
-0.000248941
0.0121124
-0.000224767
0.0123135
-0.000201104
0.0124931
-0.000179604
0.0126538
-0.000160701
0.0127981
-0.000144261
0.012928
-0.000129924
0.0130453
-0.000117304
0.0131514
-0.000106074
0.0132474
-9.59624e-05
0.0133341
-8.66974e-05
0.013412
-7.79648e-05
0.0134815
-6.94349e-05
0.0135423
-6.08511e-05
0.0135944
-5.21167e-05
0.0136378
-4.33315e-05
0.0136725
-3.47601e-05
0.0136993
-2.67502e-05
0.0137189
-1.96384e-05
0.0137326
-1.36706e-05
0.0137415
-8.95661e-06
0.013747
-5.46517e-06
0.0137501
-3.05284e-06
0.0137516
-1.5087e-06
0.0137522
-6.06661e-07
0.0137523
-1.39086e-07
0.0137522
6.70425e-08
0.0137521
1.23966e-07
0.013752
1.14481e-07
0.0137519
8.25653e-08
0.0137519
5.01895e-08
0.0137518
2.56089e-08
0.0137518
9.98011e-09
0.0137518
1.58277e-09
0.0137518
-2.2379e-09
0.0137518
-3.19225e-09
0.0137518
-2.90353e-09
0.0137518
-2.19349e-09
0.0137518
-1.47517e-09
0.0137518
-9.06968e-10
0.0137518
-5.14244e-10
0.0137518
-2.68023e-10
0.0137518
-1.25964e-10
0.0137518
-5.06873e-11
0.0137518
-1.46319e-11
0.0137518
1.9523e-13
0.0137518
4.73216e-12
0.0137518
4.92816e-12
0.0137518
4.31854e-12
0.0137518
3.90058e-12
0.0137518
3.59933e-12
0.0137518
3.03136e-12
0.0137518
2.26462e-12
0.0137518
1.58644e-12
0.0137518
1.01167e-12
0.0137518
3.92206e-13
0.0137518
1.2915e-13
0.0137518
4.30846e-13
0.0137518
8.03712e-13
0.0137518
1.00058e-12
0.0137518
7.81152e-13
0.0137518
4.32821e-13
0.0137518
4.81574e-14
0.0137518
-4.84576e-13
0.0137518
-1.47019e-12
0.0137518
-2.5342e-12
0.0137518
-2.88671e-12
0.0137518
-2.10765e-12
0.0137518
-6.0762e-13
0.0137518
1.1761e-12
0.0137518
2.24107e-12
0.0137518
2.37652e-12
0.0137518
1.83521e-12
0.0137518
8.96085e-13
0.0137518
2.54765e-13
0.0137518
1.03429e-13
0.0137518
1.00843e-13
0.0137518
2.84341e-14
0.0137518
-5.14064e-13
0.0137518
-1.22797e-12
0.0137518
-1.44727e-12
0.0137518
-8.57614e-13
0.0137518
1.65327e-13
0.0137518
1.45586e-12
0.0137518
1.70476e-12
0.0137518
1.00048e-12
0.0137518
-2.50822e-13
0.0137518
-1.15976e-12
0.0137518
-1.2599e-12
0.0137518
-3.91785e-13
0.0137518
9.17199e-14
0.0137518
8.08958e-14
0.0137518
-1.20811e-12
0.0137518
-2.21267e-12
0.0137518
-1.78725e-12
0.0137518
-6.22508e-13
0.0137518
1.06192e-12
0.0137518
1.26022e-12
0.0137518
-1.54534e-13
0.0137518
-1.33007e-12
0.0137518
-1.52041e-12
0.0137518
8.07177e-14
0.0137518
1.48799e-12
0.0137518
1.58643e-12
0.0137518
4.68238e-13
0.0137518
1.43248e-14
0.0137518
9.92364e-13
0.0137518
2.57139e-12
0.0137518
2.64063e-12
0.0137518
1.28817e-12
0.0137518
9.48418e-14
0.0137518
2.53119e-13
0.0137518
5.88397e-13
0.0137518
-6.39715e-13
0.0137518
-2.99683e-12
0.0137518
-3.38525e-12
0.0137518
-1.51249e-12
0.0137518
9.28334e-13
0.0137518
8.55775e-14
0.0137518
-2.09675e-12
0.0137518
-1.62285e-12
0.0137518
2.40867e-13
0.0137518
3.57609e-13
0.0137518
-7.21472e-13
0.0137518
-3.46382e-14
0.0137518
1.7892e-12
0.0137518
1.71823e-12
0.0137518
6.06365e-13
0.0137518
2.60965e-12
0.0137518
2.78839e-12
0.0137518
-7.44407e-13
0.0137518
-1.30987e-12
0.0137518
-4.29554e-13
0.0137518
-1.61282e-13
0.0137518
-2.39318e-12
0.0137518
1.97619e-12
0.0137518
-2.78323e-13
0.0137518
8.06503e-13
0.0137518
-5.61977e-13
0.0137518
1.06148e-11
0.0137518
4.47397e-12
0.0137518
1.57271e-11
-8.19287e-12
0.0100904
-0.00015581
0.0103203
-0.000415449
0.0106081
-0.000546034
0.010907
-0.000584462
0.0111993
-0.000582484
0.0114748
-0.000559516
0.0117243
-0.000519286
0.0119426
-0.00046724
0.0121299
-0.000412063
0.0122891
-0.000360279
0.0124239
-0.000314448
0.0125383
-0.000275041
0.0126355
-0.000241533
0.0127187
-0.000213047
0.01279
-0.000188662
0.0128515
-0.000167571
0.0129046
-0.000149087
0.0129505
-0.000132525
0.0129897
-0.000117175
0.0130226
-0.000102396
0.0130496
-8.77814e-05
0.0130707
-7.32574e-05
0.0130865
-5.90855e-05
0.0130975
-4.57476e-05
0.0131045
-3.37779e-05
0.0131085
-2.36099e-05
0.0131103
-1.54783e-05
0.0131107
-9.38773e-06
0.0131104
-5.1435e-06
0.0131097
-2.41858e-06
0.0131091
-8.3319e-07
0.0131085
-2.9812e-08
0.0131081
2.93404e-07
0.0131078
3.5654e-07
0.0131076
3.01559e-07
0.0131075
2.1256e-07
0.0131074
1.30153e-07
0.0131074
6.88444e-08
0.0131074
2.96085e-08
0.0131074
7.7377e-09
0.0131074
-2.41211e-09
0.0131074
-5.83825e-09
0.0131074
-5.90718e-09
0.0131074
-4.69794e-09
0.0131074
-3.26948e-09
0.0131074
-2.06422e-09
0.0131074
-1.19781e-09
0.0131074
-6.39062e-10
0.0131074
-3.09564e-10
0.0131074
-1.30934e-10
0.0131074
-4.27514e-11
0.0131074
-4.50854e-12
0.0131074
9.02871e-12
0.0131074
1.11416e-11
0.0131074
9.57855e-12
0.0131074
7.4873e-12
0.0131074
5.85379e-12
0.0131074
4.58034e-12
0.0131074
3.31061e-12
0.0131074
2.03352e-12
0.0131074
1.24959e-12
0.0131074
1.20704e-12
0.0131074
1.45982e-12
0.0131074
1.73505e-12
0.0131074
1.85278e-12
0.0131074
1.72039e-12
0.0131074
1.33755e-12
0.0131074
6.94677e-13
0.0131074
-1.23206e-13
0.0131074
-1.02957e-12
0.0131074
-1.9824e-12
0.0131074
-2.90434e-12
0.0131074
-3.36846e-12
0.0131074
-2.91474e-12
0.0131074
-1.52321e-12
0.0131074
3.45523e-13
0.0131074
1.85462e-12
0.0131074
2.40415e-12
0.0131074
2.01197e-12
0.0131074
1.15575e-12
0.0131074
5.05191e-13
0.0131074
3.70796e-13
0.0131074
5.19062e-13
0.0131074
5.04498e-13
0.0131074
-2.41903e-14
0.0131074
-9.26209e-13
0.0131074
-1.61794e-12
0.0131074
-1.53239e-12
0.0131074
-5.69097e-13
0.0131074
8.21391e-13
0.0131074
1.7428e-12
0.0131074
1.60435e-12
0.0131074
5.46408e-13
0.0131074
-6.04334e-13
0.0131074
-1.12391e-12
0.0131074
-6.57096e-13
0.0131074
3.25955e-14
0.0131074
1.87535e-13
0.0131074
-5.3259e-13
0.0131074
-1.59124e-12
0.0131074
-1.91452e-12
0.0131074
-1.03877e-12
0.0131074
3.80632e-13
0.0131074
1.12936e-12
0.0131074
3.34853e-13
0.0131074
-9.43137e-13
0.0131074
-1.48765e-12
0.0131074
-5.87169e-13
0.0131074
9.60635e-13
0.0131074
1.53463e-12
0.0131074
6.9101e-13
0.0131074
-3.01228e-13
0.0131074
8.09106e-14
0.0131074
1.52287e-12
0.0131074
2.55463e-12
0.0131074
2.08335e-12
0.0131074
7.63443e-13
0.0131074
2.20519e-13
0.0131074
4.20796e-13
0.0131074
-4.31108e-14
0.0131074
-1.75155e-12
0.0131074
-2.73779e-12
0.0131074
-1.68832e-12
0.0131074
5.8401e-13
0.0131074
5.79357e-13
0.0131074
-1.3479e-12
0.0131074
-2.44772e-12
0.0131074
-1.28488e-12
0.0131074
-6.83556e-14
0.0131074
-4.96905e-13
0.0131074
-1.10036e-13
0.0131074
1.19315e-12
0.0131074
2.0007e-12
0.0131074
1.90736e-12
0.0131074
1.90033e-12
0.0131074
2.35576e-12
0.0131074
-6.6409e-13
0.0131074
-1.55488e-12
0.0131074
1.32542e-12
0.0131074
2.91061e-13
0.0131074
-1.09944e-12
0.0131074
-3.71171e-12
0.0131074
-2.8416e-12
0.0131074
-3.37893e-12
0.0131074
7.67092e-12
0.0131074
3.22252e-12
0.0131074
1.37303e-11
0.0131074
1.39817e-11
0.0131074
3.72933e-11
-1.95658e-11
0.0101711
-0.000326944
0.0104732
-0.000717559
0.0107747
-0.00084747
0.0110406
-0.000850352
0.0112685
-0.00081045
0.0114512
-0.000742219
0.0115865
-0.000654554
0.0116797
-0.000560435
0.0117388
-0.00047117
0.0117714
-0.000392848
0.011784
-0.000327088
0.0117822
-0.000273202
0.0117703
-0.000229606
0.0117517
-0.000194519
0.0117292
-0.000166156
0.0117046
-0.000142921
0.011679
-0.000123561
0.0116534
-0.000106892
0.0116281
-9.18997e-05
0.0116036
-7.78467e-05
0.0115802
-6.43726e-05
0.0115584
-5.15033e-05
0.0115389
-3.95464e-05
0.0115221
-2.89209e-05
0.0115082
-1.99697e-05
0.0114975
-1.28622e-05
0.0114896
-7.57923e-06
0.0114841
-3.93123e-06
0.0114806
-1.62731e-06
0.0114785
-3.28131e-07
0.0114774
2.98569e-07
0.0114769
4.96396e-07
0.0114767
4.79386e-07
0.0114767
3.7432e-07
0.0114767
2.53829e-07
0.0114768
1.52276e-07
0.0114768
7.98265e-08
0.0114769
3.43824e-08
0.0114769
9.31505e-09
0.0114769
-2.63506e-09
0.0114769
-6.66325e-09
0.0114769
-6.81126e-09
0.0114769
-5.44876e-09
0.0114769
-3.80756e-09
0.0114769
-2.41385e-09
0.0114769
-1.40742e-09
0.0114769
-7.54321e-10
0.0114769
-3.661e-10
0.0114769
-1.54627e-10
0.0114769
-5.03681e-11
0.0114769
-5.06207e-12
0.0114769
1.10746e-11
0.0114769
1.41179e-11
0.0114769
1.24201e-11
0.0114769
9.5701e-12
0.0114769
6.78172e-12
0.0114769
4.41308e-12
0.0114769
2.73061e-12
0.0114769
1.79652e-12
0.0114769
1.39382e-12
0.0114769
1.37186e-12
0.0114769
1.65647e-12
0.0114769
2.04724e-12
0.0114769
2.0687e-12
0.0114769
1.52394e-12
0.0114769
6.76112e-13
0.0114769
3.34983e-14
0.0114769
-3.03172e-13
0.0114769
-5.66122e-13
0.0114769
-1.06775e-12
0.0114769
-1.67553e-12
0.0114769
-2.09329e-12
0.0114769
-2.02229e-12
0.0114769
-1.35106e-12
0.0114769
-3.50029e-13
0.0114769
6.07691e-13
0.0114769
9.82207e-13
0.0114769
7.6025e-13
0.0114769
2.86934e-13
0.0114769
7.15406e-14
0.0114769
3.46154e-13
0.0114769
8.91829e-13
0.0114769
1.21011e-12
0.0114769
9.08706e-13
0.0114769
1.82176e-14
0.0114769
-9.79792e-13
0.0114769
-1.45667e-12
0.0114769
-1.05389e-12
0.0114769
6.10175e-15
0.0114769
1.07041e-12
0.0114769
1.47231e-12
0.0114769
1.02423e-12
0.0114769
1.32915e-13
0.0114769
-5.45661e-13
0.0114769
-5.93019e-13
0.0114769
-2.37636e-13
0.0114769
-1.45379e-14
0.0114769
-4.07119e-13
0.0114769
-1.10064e-12
0.0114769
-1.53777e-12
0.0114769
-1.17659e-12
0.0114769
-1.43003e-13
0.0114769
7.30658e-13
0.0114769
7.52216e-13
0.0114769
1.15927e-14
0.0114769
-6.04591e-13
0.0114769
-4.9334e-13
0.0114769
2.70969e-13
0.0114769
7.06858e-13
0.0114769
4.74703e-13
0.0114769
-2.21763e-13
0.0114769
-1.34197e-13
0.0114769
8.79769e-13
0.0114769
1.85582e-12
0.0114769
1.74009e-12
0.0114769
6.03212e-13
0.0114769
-2.9134e-13
0.0114769
-2.58838e-13
0.0114769
-5.88364e-14
0.0114769
-4.61929e-13
0.0114769
-1.16189e-12
0.0114769
-9.22999e-13
0.0114769
4.36949e-14
0.0114769
6.39684e-13
0.0114769
-6.02079e-13
0.0114769
-1.53458e-12
0.0114769
-1.92963e-12
0.0114769
-1.20012e-12
0.0114769
-8.3805e-13
0.0114769
-2.90855e-13
0.0114769
1.20144e-12
0.0114769
1.98028e-12
0.0114769
2.05393e-12
0.0114769
1.86732e-12
0.0114769
1.14982e-12
0.0114769
2.9883e-13
0.0114769
-9.09627e-13
0.0114769
3.4442e-13
0.0114769
-1.2236e-13
0.0114769
-2.64861e-12
0.0114769
-9.9674e-13
0.0114769
6.20324e-14
0.0114769
1.87915e-12
0.0114769
2.71876e-12
0.0114769
1.40812e-12
0.0114769
2.17728e-12
0.0114769
1.35725e-11
0.0114769
1.23629e-11
0.0114769
4.5487e-11
-2.09048e-11
0.0102853
-0.000612233
0.010502
-0.000934222
0.010561
-0.000906483
0.0105323
-0.00082171
0.0104404
-0.000718537
0.0102935
-0.000595289
0.0101154
-0.000476444
0.00992543
-0.000370491
0.00973643
-0.00028217
0.00955594
-0.000212357
0.00938817
-0.000159326
0.00923523
-0.000120261
0.00909773
-9.20993e-05
0.00897524
-7.20329e-05
0.00886681
-5.77289e-05
0.00877128
-4.73843e-05
0.00868737
-3.96551e-05
0.00861403
-3.35506e-05
0.00855051
-2.83803e-05
0.00849639
-2.37291e-05
0.00845143
-1.94059e-05
0.00841525
-1.53313e-05
0.00838727
-1.15602e-05
0.00836661
-8.26283e-06
0.00835218
-5.54483e-06
0.00834276
-3.44073e-06
0.0083371
-1.92031e-06
0.00833408
-9.04216e-07
0.00833273
-2.81775e-07
0.00833237
3.72342e-08
0.00833251
1.54086e-07
0.00833282
1.82835e-07
0.00833314
1.60839e-07
0.0083334
1.19683e-07
0.00833357
7.72709e-08
0.00833368
4.38114e-08
0.00833374
2.11744e-08
0.00833377
7.63729e-09
0.00833378
3.78231e-10
0.00833378
-2.03112e-09
0.00833377
-2.78851e-09
0.00833377
-2.54877e-09
0.00833376
-1.95061e-09
0.00833376
-1.32377e-09
0.00833376
-8.13368e-10
0.00833376
-4.58565e-10
0.00833376
-2.36087e-10
0.00833376
-1.08118e-10
0.00833376
-4.09004e-11
0.00833376
-9.18764e-12
0.00833376
2.72664e-12
0.00833376
6.17437e-12
0.00833376
6.66868e-12
0.00833376
5.69637e-12
0.00833376
4.06172e-12
0.00833376
2.40841e-12
0.00833376
1.14384e-12
0.00833376
4.651e-13
0.00833376
6.19935e-13
0.00833376
1.16704e-12
0.00833376
1.60558e-12
0.00833376
1.49697e-12
0.00833376
9.84972e-13
0.00833376
2.80935e-13
0.00833376
-2.99831e-13
0.00833376
-7.30911e-13
0.00833376
-7.25621e-13
0.00833376
-3.64136e-13
0.00833376
7.60934e-14
0.00833376
1.75154e-13
0.00833376
3.80795e-14
0.00833376
-1.97869e-13
0.00833376
-3.3207e-13
0.00833376
-3.79367e-13
0.00833376
-4.26121e-13
0.00833376
-5.52716e-13
0.00833376
-7.34478e-13
0.00833376
-8.07708e-13
0.00833376
-5.90668e-13
0.00833376
9.10902e-15
0.00833376
7.61944e-13
0.00833376
1.3089e-12
0.00833376
1.32133e-12
0.00833376
8.01797e-13
0.00833376
1.50257e-15
0.00833376
-6.43594e-13
0.00833376
-7.53666e-13
0.00833376
-3.46349e-13
0.00833376
3.01828e-13
0.00833376
8.09039e-13
0.00833376
8.53957e-13
0.00833376
4.89268e-13
0.00833376
1.44099e-14
0.00833376