/*--------------------------------*- C++ -*----------------------------------*\
  =========                 |
  \\      /  F ield         | OpenFOAM: The Open Source CFD Toolbox
   \\    /   O peration     | Website:  https://openfoam.org
    \\  /    A nd           | Version:  7
     \\/     M anipulation  |
\*---------------------------------------------------------------------------*/
FoamFile
{
    version     2.0;
    format      ascii;
    class       volVectorField;
    location    "2.5";
    object      U;
}
// * * * * * * * * * * * * * * * * * * * * * * * * * * * * * * * * * * * * * //

dimensions      [0 1 -1 0 0 0 0];

internalField   nonuniform List<vector> 
1500
(
(1.00046 -0.00322017 0)
(1.01239 -0.00877594 0)
(1.03419 -0.0123006 0)
(1.06242 -0.0138667 0)
(1.09277 -0.0142742 0)
(1.12253 -0.0140862 0)
(1.15061 -0.0135019 0)
(1.17667 -0.012615 0)
(1.20049 -0.0115637 0)
(1.22191 -0.0104857 0)
(1.241 -0.00947237 0)
(1.25799 -0.00856397 0)
(1.27316 -0.00776567 0)
(1.28679 -0.00706402 0)
(1.29908 -0.00643972 0)
(1.31019 -0.0058757 0)
(1.32025 -0.00535982 0)
(1.32935 -0.00488173 0)
(1.33756 -0.00442852 0)
(1.34493 -0.00398441 0)
(1.35144 -0.00353512 0)
(1.3571 -0.00307313 0)
(1.36187 -0.00260071 0)
(1.36576 -0.00212962 0)
(1.36881 -0.00167801 0)
(1.3711 -0.00126569 0)
(1.37273 -0.00090927 0)
(1.37382 -0.000618651 0)
(1.37451 -0.000395853 0)
(1.37491 -0.000235827 0)
(1.37511 -0.000128622 0)
(1.3752 -6.21781e-05 0)
(1.37523 -2.4564e-05 0)
(1.37523 -5.79767e-06 0)
(1.37522 2.07163e-06 0)
(1.37521 4.21403e-06 0)
(1.3752 3.8134e-06 0)
(1.37519 2.63069e-06 0)
(1.37519 1.48478e-06 0)
(1.37518 6.55132e-07 0)
(1.37518 1.63073e-07 0)
(1.37518 -6.68695e-08 0)
(1.37518 -1.47014e-07 0)
(1.37518 -1.49862e-07 0)
(1.37518 -1.20493e-07 0)
(1.37518 -8.4713e-08 0)
(1.37518 -5.40642e-08 0)
(1.37518 -3.17936e-08 0)
(1.37518 -1.72857e-08 0)
(1.37518 -8.6041e-09 0)
(1.37518 -3.80386e-09 0)
(1.37518 -1.36029e-09 0)
(1.37518 -2.611e-10 0)
(1.37518 1.1146e-10 0)
(1.37518 1.86109e-10 0)
(1.37518 1.68996e-10 0)
(1.37518 1.41453e-10 0)
(1.37518 1.13138e-10 0)
(1.37518 7.79016e-11 0)
(1.37518 3.21864e-11 0)
(1.37518 1.65771e-11 0)
(1.37518 4.5745e-11 0)
(1.37518 8.22612e-11 0)
(1.37518 1.06941e-10 0)
(1.37518 1.27019e-10 0)
(1.37518 1.49458e-10 0)
(1.37518 1.57037e-10 0)
(1.37518 1.24576e-10 0)
(1.37518 5.41476e-11 0)
(1.37518 -3.04672e-11 0)
(1.37518 -1.00253e-10 0)
(1.37518 -1.55896e-10 0)
(1.37518 -1.85822e-10 0)
(1.37518 -1.71162e-10 0)
(1.37518 -1.21408e-10 0)
(1.37518 -6.28404e-11 0)
(1.37518 -2.8489e-11 0)
(1.37518 -1.81739e-11 0)
(1.37518 -8.21545e-12 0)
(1.37518 8.78303e-13 0)
(1.37518 2.14399e-11 0)
(1.37518 5.19348e-11 0)
(1.37518 7.27958e-11 0)
(1.37518 6.89297e-11 0)
(1.37518 4.04287e-11 0)
(1.37518 6.65755e-12 0)
(1.37518 -2.05284e-11 0)
(1.37518 -3.17472e-11 0)
(1.37518 -2.61308e-11 0)
(1.37518 -1.50566e-11 0)
(1.37518 -5.91084e-12 0)
(1.37518 -3.90509e-12 0)
(1.37518 -2.98114e-12 0)
(1.37518 6.69272e-12 0)
(1.37518 2.35842e-11 0)
(1.37518 4.12042e-11 0)
(1.37518 5.25701e-11 0)
(1.37518 4.78834e-11 0)
(1.37518 3.42066e-11 0)
(1.37518 3.40257e-11 0)
(1.37518 5.12192e-11 0)
(1.37518 6.77768e-11 0)
(1.37518 7.06758e-11 0)
(1.37518 4.77453e-11 0)
(1.37518 3.84383e-12 0)
(1.37518 -3.14555e-11 0)
(1.37518 -2.83087e-11 0)
(1.37518 -3.16126e-12 0)
(1.37518 3.10763e-11 0)
(1.37518 2.63238e-11 0)
(1.37518 -1.15809e-11 0)
(1.37518 -5.94568e-11 0)
(1.37518 -8.61395e-11 0)
(1.37518 -9.27995e-11 0)
(1.37518 -1.13314e-10 0)
(1.37518 -1.37037e-10 0)
(1.37518 -1.49385e-10 0)
(1.37518 -1.18759e-10 0)
(1.37518 -5.42998e-11 0)
(1.37518 2.15017e-11 0)
(1.37518 4.86674e-11 0)
(1.37518 7.00931e-11 0)
(1.37518 8.7776e-11 0)
(1.37518 1.75435e-10 0)
(1.37518 2.13806e-10 0)
(1.37518 1.78855e-10 0)
(1.37518 6.79821e-11 0)
(1.37518 -4.50066e-11 0)
(1.37518 -6.9242e-11 0)
(1.37518 -5.06155e-11 0)
(1.37518 -9.05005e-12 0)
(1.37518 -4.09336e-11 0)
(1.37518 -7.94648e-11 0)
(1.37518 -1.91052e-11 0)
(1.37518 4.49919e-11 0)
(1.37518 7.44346e-12 0)
(1.37518 -1.59575e-10 0)
(1.37518 -1.80504e-10 0)
(1.37518 2.52265e-11 0)
(1.37518 5.39569e-11 0)
(1.37518 8.41913e-11 0)
(1.37518 -7.94133e-11 0)
(1.37518 -5.7412e-11 0)
(1.37518 2.15419e-10 0)
(1.37518 4.54723e-10 0)
(1.37518 1.76577e-10 0)
(1.37518 1.7568e-10 0)
(1.37518 2.23383e-11 0)
(1.37518 1.10706e-09 0)
(1.37518 -2.77476e-10 0)
(1.00056 -0.0107261 0)
(1.01593 -0.0280187 0)
(1.04218 -0.038026 0)
(1.07348 -0.0421325 0)
(1.10484 -0.0430295 0)
(1.13402 -0.0421579 0)
(1.16044 -0.0400138 0)
(1.18391 -0.0369752 0)
(1.20431 -0.0335204 0)
(1.22173 -0.0300664 0)
(1.23642 -0.0268642 0)
(1.2488 -0.0240117 0)
(1.25927 -0.0215124 0)
(1.26818 -0.0193268 0)
(1.27581 -0.0174037 0)
(1.28238 -0.0156947 0)
(1.28806 -0.0141589 0)
(1.29298 -0.0127547 0)
(1.29721 -0.0114345 0)
(1.30081 -0.0101487 0)
(1.30379 -0.00885917 0)
(1.30619 -0.00755239 0)
(1.30803 -0.00624487 0)
(1.30934 -0.00497704 0)
(1.31022 -0.00380046 0)
(1.31074 -0.00276378 0)
(1.311 -0.00190133 0)
(1.31109 -0.00122678 0)
(1.31108 -0.000732957 0)
(1.31102 -0.0003965 0)
(1.31094 -0.000184948 0)
(1.31088 -6.46343e-05 0)
(1.31082 -4.84824e-06 0)
(1.31079 1.86004e-05 0)
(1.31076 2.30353e-05 0)
(1.31075 1.92452e-05 0)
(1.31075 1.32298e-05 0)
(1.31074 7.80069e-06 0)
(1.31074 3.8834e-06 0)
(1.31074 1.46401e-06 0)
(1.31074 1.88608e-07 0)
(1.31074 -3.46575e-07 0)
(1.31074 -4.81376e-07 0)
(1.31074 -4.32682e-07 0)
(1.31074 -3.24077e-07 0)
(1.31074 -2.16385e-07 0)
(1.31074 -1.321e-07 0)
(1.31074 -7.43257e-08 0)
(1.31074 -3.84226e-08 0)
(1.31074 -1.79264e-08 0)
(1.31074 -7.148e-09 0)
(1.31074 -1.99451e-09 0)
(1.31074 1.01998e-10 0)
(1.31074 7.0543e-10 0)
(1.31074 6.94272e-10 0)
(1.31074 5.15796e-10 0)
(1.31074 3.64363e-10 0)
(1.31074 2.81796e-10 0)
(1.31074 2.39852e-10 0)
(1.31074 2.00793e-10 0)
(1.31074 1.55796e-10 0)
(1.31074 1.34229e-10 0)
(1.31074 1.53091e-10 0)
(1.31074 2.08712e-10 0)
(1.31074 2.68546e-10 0)
(1.31074 3.037e-10 0)
(1.31074 2.82187e-10 0)
(1.31074 2.00242e-10 0)
(1.31074 8.28375e-11 0)
(1.31074 -3.75803e-11 0)
(1.31074 -1.53507e-10 0)
(1.31074 -2.59846e-10 0)
(1.31074 -3.48172e-10 0)
(1.31074 -3.87775e-10 0)
(1.31074 -3.49806e-10 0)
(1.31074 -2.32067e-10 0)
(1.31074 -6.77365e-11 0)
(1.31074 7.13962e-11 0)
(1.31074 1.37008e-10 0)
(1.31074 1.32767e-10 0)
(1.31074 9.42391e-11 0)
(1.31074 6.46012e-11 0)
(1.31074 7.62416e-11 0)
(1.31074 1.06113e-10 0)
(1.31074 1.10684e-10 0)
(1.31074 5.63994e-11 0)
(1.31074 -4.51748e-11 0)
(1.31074 -1.35509e-10 0)
(1.31074 -1.58239e-10 0)
(1.31074 -8.6146e-11 0)
(1.31074 3.97875e-11 0)
(1.31074 1.33094e-10 0)
(1.31074 1.32868e-10 0)
(1.31074 4.62702e-11 0)
(1.31074 -5.32478e-11 0)
(1.31074 -7.73573e-11 0)
(1.31074 -5.97042e-12 0)
(1.31074 1.0836e-10 0)
(1.31074 1.61265e-10 0)
(1.31074 1.06176e-10 0)
(1.31074 -3.4782e-12 0)
(1.31074 -6.11687e-11 0)
(1.31074 -9.95982e-12 0)
(1.31074 8.49257e-11 0)
(1.31074 1.01105e-10 0)
(1.31074 -7.05343e-12 0)
(1.31074 -1.47147e-10 0)
(1.31074 -1.56975e-10 0)
(1.31074 -1.87723e-13 0)
(1.31074 1.78697e-10 0)
(1.31074 1.80132e-10 0)
(1.31074 -7.6682e-12 0)
(1.31074 -2.04709e-10 0)
(1.31074 -2.19586e-10 0)
(1.31074 -8.37479e-11 0)
(1.31074 -2.22834e-11 0)
(1.31074 -1.11824e-10 0)
(1.31074 -1.897e-10 0)
(1.31074 -6.04398e-11 0)
(1.31074 1.64568e-10 0)
(1.31074 1.74946e-10 0)
(1.31074 -5.93988e-11 0)
(1.31074 -2.00449e-10 0)
(1.31074 8.10246e-11 0)
(1.31074 4.31978e-10 0)
(1.31074 3.99635e-10 0)
(1.31074 -4.9492e-11 0)
(1.31074 -2.54066e-10 0)
(1.31074 -1.87865e-11 0)
(1.31074 1.26163e-10 0)
(1.31074 -2.27872e-11 0)
(1.31074 -2.29675e-10 0)
(1.31074 -9.71876e-11 0)
(1.31074 7.48483e-11 0)
(1.31074 -4.26444e-11 0)
(1.31074 -1.09336e-11 0)
(1.31074 5.39655e-11 0)
(1.31074 1.3312e-11 0)
(1.31074 9.37594e-11 0)
(1.31074 1.57252e-11 0)
(1.31074 -3.91039e-12 0)
(1.31074 -1.9394e-10 0)
(1.31074 2.02727e-10 0)
(1.31074 2.17267e-10 0)
(1.31074 6.12183e-10 0)
(1.31074 -9.78574e-12 0)
(1.31074 1.0929e-09 0)
(1.31074 8.05737e-10 0)
(1.31074 2.36701e-09 0)
(1.31074 -1.65634e-09 0)
(1.00109 -0.0224476 0)
(1.02553 -0.0539476 0)
(1.05877 -0.0683455 0)
(1.09057 -0.0726563 0)
(1.11664 -0.0722574 0)
(1.13706 -0.0688875 0)
(1.15269 -0.0633294 0)
(1.16411 -0.0565473 0)
(1.17179 -0.0495247 0)
(1.17635 -0.0429435 0)
(1.17849 -0.0371193 0)
(1.17887 -0.032114 0)
(1.17803 -0.0278633 0)
(1.17638 -0.0242618 0)
(1.17423 -0.0212044 0)
(1.1718 -0.0185979 0)
(1.16924 -0.0163513 0)
(1.16666 -0.0143684 0)
(1.16409 -0.0125512 0)
(1.16159 -0.010817 0)
(1.15919 -0.00911802 0)
(1.15692 -0.00745102 0)
(1.15484 -0.00585329 0)
(1.15301 -0.00438545 0)
(1.15147 -0.00310735 0)
(1.15024 -0.00206023 0)
(1.14931 -0.00125789 0)
(1.14865 -0.000686988 0)
(1.14821 -0.000313815 0)
(1.14793 -9.47227e-05 0)
(1.14778 1.56993e-05 0)
(1.1477 5.89309e-05 0)
(1.14767 6.50137e-05 0)
(1.14767 5.42213e-05 0)
(1.14767 3.85467e-05 0)
(1.14767 2.41582e-05 0)
(1.14768 1.33362e-05 0)
(1.14769 6.24007e-06 0)
(1.14769 2.1393e-06 0)
(1.14769 1.2139e-07 0)
(1.14769 -6.70943e-07 0)
(1.14769 -8.33608e-07 0)
(1.14769 -7.1914e-07 0)
(1.14769 -5.25323e-07 0)
(1.14769 -3.44128e-07 0)
(1.14769 -2.06487e-07 0)
(1.14769 -1.14063e-07 0)
(1.14769 -5.7565e-08 0)
(1.14769 -2.58276e-08 0)
(1.14769 -9.50211e-09 0)
(1.14769 -2.00703e-09 0)
(1.14769 8.29176e-10 0)
(1.14769 1.51064e-09 0)
(1.14769 1.36936e-09 0)
(1.14769 1.02157e-09 0)
(1.14769 7.322e-10 0)
(1.14769 5.56247e-10 0)
(1.14769 4.47888e-10 0)
(1.14769 3.55904e-10 0)
(1.14769 2.66878e-10 0)
(1.14769 1.85102e-10 0)
(1.14769 1.4939e-10 0)
(1.14769 2.0481e-10 0)
(1.14769 3.15107e-10 0)
(1.14769 3.93923e-10 0)
(1.14769 3.69692e-10 0)
(1.14769 2.50722e-10 0)
(1.14769 1.00874e-10 0)
(1.14769 -3.28335e-11 0)
(1.14769 -1.57611e-10 0)
(1.14769 -2.93393e-10 0)
(1.14769 -4.15253e-10 0)
(1.14769 -4.83942e-10 0)
(1.14769 -4.56753e-10 0)
(1.14769 -3.20901e-10 0)
(1.14769 -1.14208e-10 0)
(1.14769 7.67679e-11 0)
(1.14769 1.6628e-10 0)
(1.14769 1.53985e-10 0)
(1.14769 1.05886e-10 0)
(1.14769 8.91785e-11 0)
(1.14769 1.27822e-10 0)
(1.14769 1.81454e-10 0)
(1.14769 1.83276e-10 0)
(1.14769 9.00861e-11 0)
(1.14769 -6.88167e-11 0)
(1.14769 -1.97404e-10 0)
(1.14769 -2.17436e-10 0)
(1.14769 -1.1286e-10 0)
(1.14769 5.3595e-11 0)
(1.14769 1.58668e-10 0)
(1.14769 1.47576e-10 0)
(1.14769 4.21296e-11 0)
(1.14769 -6.02282e-11 0)
(1.14769 -6.68834e-11 0)
(1.14769 3.36068e-11 0)
(1.14769 1.43417e-10 0)
(1.14769 1.58201e-10 0)
(1.14769 4.3629e-11 0)
(1.14769 -1.04216e-10 0)
(1.14769 -1.46978e-10 0)
(1.14769 -4.30928e-11 0)
(1.14769 1.0979e-10 0)
(1.14769 1.50206e-10 0)
(1.14769 3.66527e-11 0)
(1.14769 -1.16384e-10 0)
(1.14769 -1.47448e-10 0)
(1.14769 4.15671e-12 0)
(1.14769 1.63399e-10 0)
(1.14769 1.63232e-10 0)
(1.14769 -1.99459e-11 0)
(1.14769 -1.92797e-10 0)
(1.14769 -1.64549e-10 0)
(1.14769 7.63406e-12 0)
(1.14769 9.58814e-11 0)
(1.14769 -2.03053e-11 0)
(1.14769 -1.69004e-10 0)
(1.14769 -1.47931e-10 0)
(1.14769 -1.0107e-11 0)
(1.14769 -2.4607e-11 0)
(1.14769 -2.24721e-10 0)
(1.14769 -2.39613e-10 0)
(1.14769 1.24416e-10 0)
(1.14769 5.81351e-10 0)
(1.14769 5.19141e-10 0)
(1.14769 5.84536e-11 0)
(1.14769 -2.84559e-10 0)
(1.14769 -1.05837e-10 0)
(1.14769 8.11459e-11 0)
(1.14769 -1.27296e-10 0)
(1.14769 -3.26813e-10 0)
(1.14769 -1.74806e-10 0)
(1.14769 1.6974e-10 0)
(1.14769 2.4851e-10 0)
(1.14769 1.29839e-10 0)
(1.14769 2.07287e-10 0)
(1.14769 9.09921e-11 0)
(1.14769 -6.24777e-11 0)
(1.14769 -9.14352e-11 0)
(1.14769 -3.05979e-10 0)
(1.14769 -2.57612e-10 0)
(1.14769 5.54288e-11 0)
(1.14769 2.99097e-10 0)
(1.14769 -1.39868e-10 0)
(1.14769 6.82466e-10 0)
(1.14769 2.65286e-10 0)
(1.14769 1.69714e-09 0)
(1.14769 1.26783e-09 0)
(1.14769 4.17216e-09 0)
(1.14769 -2.28552e-09 0)
(1.00086 -0.0537028 0)
(1.0315 -0.0984002 0)
(1.05406 -0.106344 0)
(1.05901 -0.102381 0)
(1.05111 -0.0943693 0)
(1.03726 -0.0837375 0)
(1.02056 -0.0714217 0)
(1.00229 -0.0588902 0)
(0.983404 -0.0473932 0)
(0.96481 -0.0375675 0)
(0.947226 -0.0295539 0)
(0.931057 -0.0232274 0)
(0.916454 -0.0183472 0)
(0.903414 -0.0146398 0)
(0.891853 -0.0118423 0)
(0.881655 -0.00972136 0)
(0.872691 -0.00807645 0)
(0.864839 -0.0067443 0)
(0.858008 -0.00560344 0)
(0.852136 -0.00457657 0)
(0.847194 -0.003631 0)
(0.843155 -0.00277167 0)
(0.839968 -0.0020196 0)
(0.83756 -0.00139184 0)
(0.835831 -0.000895625 0)
(0.834665 -0.000527015 0)
(0.833934 -0.00027215 0)
(0.83352 -0.000110493 0)
(0.833316 -1.86639e-05 0)
(0.833242 2.60872e-05 0)
(0.833238 4.15316e-05 0)
(0.833265 4.03172e-05 0)
(0.833299 3.1696e-05 0)
(0.833328 2.16313e-05 0)
(0.83335 1.3092e-05 0)
(0.833364 6.96459e-06 0)
(0.833372 3.08389e-06 0)
(0.833376 9.08566e-07 0)
(0.833377 -1.41466e-07 0)
(0.833378 -5.44558e-07 0)
(0.833377 -5.97215e-07 0)
(0.833377 -4.97107e-07 0)
(0.833377 -3.56479e-07 0)
(0.833376 -2.30366e-07 0)
(0.833376 -1.36709e-07 0)
(0.833376 -7.46917e-08 0)
(0.833376 -3.71655e-08 0)
(0.833376 -1.62924e-08 0)
(0.833376 -5.70117e-09 0)
(0.833376 -9.41471e-10 0)
(0.833376 8.38254e-10 0)
(0.833376 1.25008e-09 0)
(0.833376 1.13945e-09 0)
(0.833376 8.83712e-10 0)
(0.833376 6.40895e-10 0)
(0.833376 4.52132e-10 0)
(0.833376 3.05521e-10 0)
(0.833376 1.90363e-10 0)
(0.833376 1.18383e-10 0)
(0.833376 1.05057e-10 0)
(0.833376 1.48738e-10 0)
(0.833376 2.19314e-10 0)
(0.833376 2.63645e-10 0)
(0.833376 2.42959e-10 0)
(0.833376 1.40811e-10 0)
(0.833376 -1.09929e-11 0)
(0.833376 -1.41274e-10 0)
(0.833376 -1.88213e-10 0)
(0.833376 -1.50348e-10 0)
(0.833376 -8.43014e-11 0)
(0.833376 -4.59546e-11 0)
(0.833376 -6.24523e-11 0)
(0.833376 -9.76165e-11 0)
(0.833376 -1.04717e-10 0)
(0.833376 -6.86042e-11 0)
(0.833376 -2.13065e-11 0)
(0.833376 -7.48321e-12 0)
(0.833376 -2.21983e-11 0)
(0.833376 -4.20481e-11 0)
(0.833376 -3.16778e-11 0)
(0.833376 2.33202e-11 0)
(0.833376 1.03544e-10 0)
(0.833376 1.53571e-10 0)
(0.833376 1.31235e-10 0)
(0.833376 4.23177e-11 0)
(0.833376 -6.12641e-11 0)
(0.833376 -1.20017e-10 0)
(0.833376 -9.63108e-11 0)
(0.833376 -7.58792e-12 0)
(0.833376 7.6966e-11 0)
(0.833376 1.08447e-10 0)
(0.833376 7.35672e-11 0)
(0.833376 1.36301e-11 0)
(0.833376 -1.67214e-11 0)
(0.833376 6.99292e-12 0)
(0.833376 5.11486e-11 0)
(0.833376 5.93748e-11 0)
(0.833376 -6.29883e-12 0)
(0.833376 -9.79947e-11 0)
(0.833376 -1.45122e-10 0)
(0.833376 -1.00093e-10 0)
(0.833376 1.53921e-11 0)
(0.833376 1.1102e-10 0)
(0.833376 1.20854e-10 0)
(0.833376 5.06062e-11 0)
(0.833376 -2.70648e-11 0)
(0.833376 -3.6797e-11 0)
(0.833376 -5.21968e-12 0)
(0.833376 8.06174e-12 0)
(0.833376 -3.27929e-11 0)
(0.833376 -6.04511e-11 0)
(0.833376 -6.75193e-12 0)
(0.833376 1.06561e-10 0)
(0.833376 1.60715e-10 0)
(0.833376 7.44395e-11 0)
(0.833376 -8.65963e-11 0)
(0.833376 -1.87224e-10 0)
(0.833376 -1.70484e-10 0)
(0.833376 -1.22133e-10 0)
(0.833376 -9.64566e-11 0)
(0.833376 -4.4265e-11 0)
(0.833376 1.22067e-10 0)
(0.833376 2.59823e-10 0)
(0.833376 2.36116e-10 0)
(0.833376 1.26716e-12 0)
(0.833376 -1.06297e-10 0)
(0.833376 -3.6872e-11 0)
(0.833376 3.73574e-11 0)
(0.833376 -1.1913e-10 0)
(0.833376 -2.45153e-10 0)
(0.833376 -9.03957e-11 0)
(0.833376 1.93307e-10 0)
(0.833376 2.57721e-10 0)
(0.833376 9.8342e-11 0)
(0.833376 1.52013e-11 0)
(0.833376 1.05721e-10 0)
(0.833376 3.34451e-11 0)
(0.833376 -1.44381e-10 0)
(0.833376 -2.58316e-10 0)
(0.833376 -8.51275e-11 0)
(0.833376 4.26157e-11 0)
(0.833376 -6.21051e-11 0)
(0.833376 4.4966e-11 0)
(0.833376 1.58112e-10 0)
(0.833376 4.76347e-10 0)
(0.833376 3.45112e-10 0)
(0.833376 1.32895e-09 0)
(0.833376 1.57769e-09 0)
(0.833376 5.21125e-09 0)
(0.833376 -1.89781e-09 0)
(0.926666 -0.0391663 0)
(0.882391 -0.065594 0)
(0.809159 -0.0645401 0)
(0.71811 -0.0565015 0)
(0.634386 -0.0468929 0)
(0.567024 -0.0366702 0)
(0.514335 -0.0267453 0)
(0.473025 -0.0182742 0)
(0.440967 -0.0118267 0)
(0.416576 -0.00730348 0)
(0.398253 -0.00431849 0)
(0.384484 -0.00246111 0)
(0.374021 -0.00137993 0)
(0.365922 -0.000799879 0)
(0.359508 -0.000520214 0)
(0.354304 -0.000405083 0)
(0.349987 -0.00037023 0)
(0.34635 -0.000365803 0)
(0.343271 -0.00036356 0)
(0.340679 -0.000349342 0)
(0.338535 -0.000319794 0)
(0.336811 -0.000280065 0)
(0.33548 -0.000236108 0)
(0.334502 -0.000190407 0)
(0.333824 -0.000145826 0)
(0.333385 -0.000105391 0)
(0.333126 -7.13776e-05 0)
(0.332991 -4.48585e-05 0)
(0.332936 -2.56851e-05 0)
(0.332927 -1.20625e-05 0)
(0.332938 -2.88308e-06 0)
(0.332955 1.20783e-06 0)
(0.332973 2.35995e-06 0)
(0.332987 2.21317e-06 0)
(0.332996 1.68157e-06 0)
(0.333002 1.12172e-06 0)
(0.333005 6.67684e-07 0)
(0.333007 3.52307e-07 0)
(0.333007 1.54685e-07 0)
(0.333007 1.24521e-08 0)
(0.333007 -4.65901e-08 0)
(0.333006 -5.60868e-08 0)
(0.333006 -4.61848e-08 0)
(0.333006 -3.21838e-08 0)
(0.333006 -2.02577e-08 0)
(0.333006 -1.16998e-08 0)
(0.333006 -6.21233e-09 0)
(0.333006 -3.01444e-09 0)
(0.333006 -1.30584e-09 0)
(0.333006 -4.60832e-10 0)
(0.333006 -3.68939e-11 0)
(0.333006 1.59782e-10 0)
(0.333006 1.95942e-10 0)
(0.333006 1.65261e-10 0)
(0.333006 1.13719e-10 0)
(0.333006 6.41746e-11 0)
(0.333006 3.35131e-11 0)
(0.333006 2.59638e-11 0)
(0.333006 4.18813e-11 0)
(0.333006 7.5442e-11 0)
(0.333006 1.1159e-10 0)
(0.333006 1.16921e-10 0)
(0.333006 7.0965e-11 0)
(0.333006 -1.32235e-11 0)
(0.333006 -1.04382e-10 0)
(0.333006 -1.57394e-10 0)
(0.333006 -1.48926e-10 0)
(0.333006 -8.99855e-11 0)
(0.333006 -1.01809e-11 0)
(0.333006 5.60605e-11 0)
(0.333006 8.26188e-11 0)
(0.333006 7.20073e-11 0)
(0.333006 4.34726e-11 0)
(0.333006 1.16247e-11 0)
(0.333006 -1.77865e-11 0)
(0.333006 -4.67225e-11 0)
(0.333006 -6.97713e-11 0)
(0.333006 -7.35612e-11 0)
(0.333006 -5.28576e-11 0)
(0.333006 -1.0021e-11 0)
(0.333006 4.00807e-11 0)
(0.333006 7.65481e-11 0)
(0.333006 7.82415e-11 0)
(0.333006 4.68503e-11 0)
(0.333006 3.35015e-12 0)
(0.333006 -2.83148e-11 0)
(0.333006 -3.27468e-11 0)
(0.333006 -1.29407e-11 0)
(0.333006 1.40079e-11 0)
(0.333006 2.71011e-11 0)
(0.333006 2.43828e-11 0)
(0.333006 1.48918e-11 0)
(0.333006 1.26077e-11 0)
(0.333006 2.22415e-11 0)
(0.333006 3.12653e-11 0)
(0.333006 1.97149e-11 0)
(0.333006 -1.85383e-11 0)
(0.333006 -6.67011e-11 0)
(0.333006 -8.57336e-11 0)
(0.333006 -6.35276e-11 0)
(0.333006 -1.13662e-11 0)
(0.333006 3.90801e-11 0)
(0.333006 5.93741e-11 0)
(0.333006 4.60245e-11 0)
(0.333006 1.55891e-11 0)
(0.333006 -1.01613e-11 0)
(0.333006 -2.36568e-11 0)
(0.333006 -3.30366e-11 0)
(0.333006 -3.49724e-11 0)
(0.333006 -1.09859e-11 0)
(0.333006 4.26981e-11 0)
(0.333006 9.85842e-11 0)
(0.333006 1.01103e-10 0)
(0.333006 4.40548e-11 0)
(0.333006 -4.15883e-11 0)
(0.333006 -9.54055e-11 0)
(0.333006 -9.35034e-11 0)
(0.333006 -5.40948e-11 0)
(0.333006 -2.97974e-12 0)
(0.333006 3.73945e-11 0)
(0.333006 4.66471e-11 0)
(0.333006 1.66023e-11 0)
(0.333006 -2.94228e-11 0)
(0.333006 -3.18748e-11 0)
(0.333006 3.30122e-11 0)
(0.333006 7.93702e-11 0)
(0.333006 -3.2685e-12 0)
(0.333006 -1.13213e-10 0)
(0.333006 -1.00458e-10 0)
(0.333006 5.07479e-11 0)
(0.333006 1.46547e-10 0)
(0.333006 6.85003e-11 0)
(0.333006 -5.10752e-11 0)
(0.333006 -2.1138e-11 0)
(0.333006 6.66554e-11 0)
(0.333006 5.02463e-11 0)
(0.333006 -6.49558e-11 0)
(0.333006 -9.21009e-11 0)
(0.333006 4.56587e-11 0)
(0.333006 1.35826e-10 0)
(0.333006 -7.70333e-11 0)
(0.333006 -2.17376e-10 0)
(0.333006 -6.04348e-11 0)
(0.333006 2.76126e-12 0)
(0.333006 1.41367e-11 0)
(0.333006 1.72799e-10 0)
(0.333006 1.50372e-10 0)
(0.333006 4.57451e-10 0)
(0.333006 1.16175e-09 0)
(0.333006 -1.55644e-09 0)
(1.00046 0.00322017 0)
(1.01239 0.00877594 0)
(1.03419 0.0123006 0)
(1.06242 0.0138667 0)
(1.09277 0.0142742 0)
(1.12253 0.0140862 0)
(1.15061 0.0135019 0)
(1.17667 0.012615 0)
(1.20049 0.0115637 0)
(1.22191 0.0104857 0)
(1.241 0.00947237 0)
(1.25799 0.00856397 0)
(1.27316 0.00776567 0)
(1.28679 0.00706402 0)
(1.29908 0.00643972 0)
(1.31019 0.0058757 0)
(1.32025 0.00535982 0)
(1.32935 0.00488173 0)
(1.33756 0.00442852 0)
(1.34493 0.00398441 0)
(1.35144 0.00353512 0)
(1.3571 0.00307313 0)
(1.36187 0.00260071 0)
(1.36576 0.00212962 0)
(1.36881 0.00167801 0)
(1.3711 0.00126569 0)
(1.37273 0.000909269 0)
(1.37382 0.000618651 0)
(1.37451 0.000395853 0)
(1.37491 0.000235827 0)
(1.37511 0.000128623 0)
(1.3752 6.21785e-05 0)
(1.37523 2.45643e-05 0)
(1.37523 5.79769e-06 0)
(1.37522 -2.07192e-06 0)
(1.37521 -4.21423e-06 0)
(1.3752 -3.81335e-06 0)
(1.37519 -2.63051e-06 0)
(1.37519 -1.48452e-06 0)
(1.37518 -6.54871e-07 0)
(1.37518 -1.62885e-07 0)
(1.37518 6.70143e-08 0)
(1.37518 1.47102e-07 0)
(1.37518 1.4986e-07 0)
(1.37518 1.20451e-07 0)
(1.37518 8.47127e-08 0)
(1.37518 5.40888e-08 0)
(1.37518 3.17528e-08 0)
(1.37518 1.71494e-08 0)
(1.37518 8.4459e-09 0)
(1.37518 3.6794e-09 0)
(1.37518 1.26169e-09 0)
(1.37518 1.5667e-10 0)
(1.37518 -2.14342e-10 0)
(1.37518 -2.46566e-10 0)
(1.37518 -1.79215e-10 0)
(1.37518 -1.29063e-10 0)
(1.37518 -1.15126e-10 0)
(1.37518 -1.23461e-10 0)
(1.37518 -1.34868e-10 0)
(1.37518 -1.19638e-10 0)
(1.37518 -7.07111e-11 0)
(1.37518 -1.06455e-12 0)
(1.37518 4.17123e-11 0)
(1.37518 4.04401e-11 0)
(1.37518 1.00611e-11 0)
(1.37518 -1.1121e-11 0)
(1.37518 -2.24355e-11 0)
(1.37518 -4.27606e-11 0)
(1.37518 -7.58121e-11 0)
(1.37518 -9.27305e-11 0)
(1.37518 -6.06862e-11 0)
(1.37518 1.98885e-11 0)
(1.37518 1.08109e-10 0)
(1.37518 1.52604e-10 0)
(1.37518 1.14199e-10 0)
(1.37518 4.23137e-12 0)
(1.37518 -1.16218e-10 0)
(1.37518 -1.74241e-10 0)
(1.37518 -1.42875e-10 0)
(1.37518 -5.20797e-11 0)
(1.37518 3.45607e-11 0)
(1.37518 6.02606e-11 0)
(1.37518 2.76795e-11 0)
(1.37518 -1.93301e-11 0)
(1.37518 -3.14133e-11 0)
(1.37518 1.56809e-11 0)
(1.37518 8.29825e-11 0)
(1.37518 1.09982e-10 0)
(1.37518 5.49415e-11 0)
(1.37518 -5.75109e-11 0)
(1.37518 -1.45431e-10 0)
(1.37518 -1.35559e-10 0)
(1.37518 -2.64854e-11 0)
(1.37518 1.11881e-10 0)
(1.37518 1.6925e-10 0)
(1.37518 1.07403e-10 0)
(1.37518 -1.52585e-11 0)
(1.37518 -7.4593e-11 0)
(1.37518 -8.47044e-12 0)
(1.37518 1.34082e-10 0)
(1.37518 2.17788e-10 0)
(1.37518 1.40737e-10 0)
(1.37518 -3.40239e-11 0)
(1.37518 -1.3636e-10 0)
(1.37518 -6.11868e-11 0)
(1.37518 1.23902e-10 0)
(1.37518 2.19759e-10 0)
(1.37518 1.03955e-10 0)
(1.37518 -1.21903e-10 0)
(1.37518 -2.36068e-10 0)
(1.37518 -1.47594e-10 0)
(1.37518 5.00924e-13 0)
(1.37518 -5.72452e-12 0)
(1.37518 -1.73141e-10 0)
(1.37518 -2.87976e-10 0)
(1.37518 -1.99277e-10 0)
(1.37518 -2.97895e-11 0)
(1.37518 -1.26682e-11 0)
(1.37518 -1.38067e-10 0)
(1.37518 -1.11036e-10 0)
(1.37518 1.73401e-10 0)
(1.37518 4.56023e-10 0)
(1.37518 3.42168e-10 0)
(1.37518 2.11165e-11 0)
(1.37518 -9.12351e-11 0)
(1.37518 8.41476e-11 0)
(1.37518 1.57264e-10 0)
(1.37518 -2.70722e-11 0)
(1.37518 -1.2003e-10 0)
(1.37518 -6.25645e-12 0)
(1.37518 6.22724e-11 0)
(1.37518 -6.03348e-11 0)
(1.37518 -7.06743e-11 0)
(1.37518 4.41249e-11 0)
(1.37518 -1.74123e-10 0)
(1.37518 -3.72269e-10 0)
(1.37518 -6.02899e-11 0)
(1.37518 1.57621e-10 0)
(1.37518 3.28597e-12 0)
(1.37518 4.51301e-12 0)
(1.37518 3.01931e-10 0)
(1.37518 2.77172e-11 0)
(1.37518 3.10181e-11 0)
(1.37518 -1.92023e-10 0)
(1.37518 2.60378e-11 0)
(1.37518 -5.77385e-10 0)
(1.37518 -2.58919e-10 0)
(1.37518 -4.836e-10 0)
(1.37518 6.78814e-10 0)
(1.00056 0.0107261 0)
(1.01593 0.0280187 0)
(1.04218 0.038026 0)
(1.07348 0.0421325 0)
(1.10484 0.0430295 0)
(1.13402 0.0421579 0)
(1.16044 0.0400138 0)
(1.18391 0.0369752 0)
(1.20431 0.0335204 0)
(1.22173 0.0300664 0)
(1.23642 0.0268642 0)
(1.2488 0.0240117 0)
(1.25927 0.0215124 0)
(1.26818 0.0193268 0)
(1.27581 0.0174037 0)
(1.28238 0.0156947 0)
(1.28806 0.0141589 0)
(1.29298 0.0127547 0)
(1.29721 0.0114345 0)
(1.30081 0.0101487 0)
(1.30379 0.00885917 0)
(1.30619 0.00755239 0)
(1.30803 0.00624487 0)
(1.30934 0.00497704 0)
(1.31022 0.00380046 0)
(1.31074 0.00276378 0)
(1.311 0.00190133 0)
(1.31109 0.00122678 0)
(1.31108 0.000732957 0)
(1.31102 0.0003965 0)
(1.31094 0.000184948 0)
(1.31088 6.46342e-05 0)
(1.31082 4.84813e-06 0)
(1.31079 -1.86004e-05 0)
(1.31076 -2.30354e-05 0)
(1.31075 -1.92453e-05 0)
(1.31075 -1.32298e-05 0)
(1.31074 -7.80053e-06 0)
(1.31074 -3.88318e-06 0)
(1.31074 -1.46389e-06 0)
(1.31074 -1.88632e-07 0)
(1.31074 3.46514e-07 0)
(1.31074 4.8141e-07 0)
(1.31074 4.32842e-07 0)
(1.31074 3.24267e-07 0)
(1.31074 2.16498e-07 0)
(1.31074 1.32114e-07 0)
(1.31074 7.42718e-08 0)
(1.31074 3.83334e-08 0)
(1.31074 1.7825e-08 0)
(1.31074 7.05885e-09 0)
(1.31074 1.9384e-09 0)
(1.31074 -1.22556e-10 0)
(1.31074 -7.02464e-10 0)
(1.31074 -7.12886e-10 0)
(1.31074 -6.0215e-10 0)
(1.31074 -5.27207e-10 0)
(1.31074 -4.67948e-10 0)
(1.31074 -3.7884e-10 0)
(1.31074 -2.60916e-10 0)
(1.31074 -1.60589e-10 0)
(1.31074 -9.88988e-11 0)
(1.31074 -7.71502e-11 0)
(1.31074 -8.82448e-11 0)
(1.31074 -1.26953e-10 0)
(1.31074 -1.64635e-10 0)
(1.31074 -1.66676e-10 0)
(1.31074 -1.25233e-10 0)
(1.31074 -6.20077e-11 0)
(1.31074 1.65396e-11 0)
(1.31074 1.22593e-10 0)
(1.31074 2.51969e-10 0)
(1.31074 3.59187e-10 0)
(1.31074 3.6888e-10 0)
(1.31074 2.49595e-10 0)
(1.31074 3.72547e-11 0)
(1.31074 -1.67141e-10 0)
(1.31074 -2.70912e-10 0)
(1.31074 -2.59299e-10 0)
(1.31074 -1.68848e-10 0)
(1.31074 -8.17211e-11 0)
(1.31074 -5.1866e-11 0)
(1.31074 -6.34672e-11 0)
(1.31074 -6.41519e-11 0)
(1.31074 -6.03744e-12 0)
(1.31074 1.00702e-10 0)
(1.31074 1.92949e-10 0)
(1.31074 2.01282e-10 0)
(1.31074 9.57155e-11 0)
(1.31074 -7.17534e-11 0)
(1.31074 -1.87471e-10 0)
(1.31074 -1.81953e-10 0)
(1.31074 -5.78622e-11 0)
(1.31074 8.84377e-11 0)
(1.31074 1.45687e-10 0)
(1.31074 7.47112e-11 0)
(1.31074 -4.50264e-11 0)
(1.31074 -8.33081e-11 0)
(1.31074 2.3648e-11 0)
(1.31074 1.91044e-10 0)
(1.31074 2.6709e-10 0)
(1.31074 1.74179e-10 0)
(1.31074 -2.67546e-11 0)
(1.31074 -1.45688e-10 0)
(1.31074 -7.2668e-11 0)
(1.31074 1.14226e-10 0)
(1.31074 2.19028e-10 0)
(1.31074 1.08118e-10 0)
(1.31074 -1.12558e-10 0)
(1.31074 -2.26299e-10 0)
(1.31074 -1.26865e-10 0)
(1.31074 4.19491e-11 0)
(1.31074 4.79891e-11 0)
(1.31074 -1.38237e-10 0)
(1.31074 -3.02488e-10 0)
(1.31074 -2.70821e-10 0)
(1.31074 -1.15615e-10 0)
(1.31074 -4.88482e-11 0)
(1.31074 -9.77171e-11 0)
(1.31074 -4.48353e-11 0)
(1.31074 2.351e-10 0)
(1.31074 4.29151e-10 0)
(1.31074 2.89271e-10 0)
(1.31074 -1.02444e-10 0)
(1.31074 -1.71426e-10 0)
(1.31074 7.44338e-11 0)
(1.31074 2.85505e-10 0)
(1.31074 1.48242e-10 0)
(1.31074 -3.79976e-11 0)
(1.31074 7.13377e-11 0)
(1.31074 1.09716e-10 0)
(1.31074 -2.93687e-11 0)
(1.31074 -1.75449e-10 0)
(1.31074 -2.14926e-10 0)
(1.31074 -2.7097e-10 0)
(1.31074 -3.63214e-10 0)
(1.31074 -1.13055e-11 0)
(1.31074 2.82215e-10 0)
(1.31074 -7.27647e-12 0)
(1.31074 -3.01164e-11 0)
(1.31074 1.05354e-11 0)
(1.31074 1.74657e-10 0)
(1.31074 8.59495e-11 0)
(1.31074 3.0024e-10 0)
(1.31074 -5.62672e-10 0)
(1.31074 -1.86871e-10 0)
(1.31074 -1.09415e-09 0)
(1.31074 -7.49648e-10 0)
(1.31074 -2.75177e-09 0)
(1.31074 1.35603e-09 0)
(1.00109 0.0224476 0)
(1.02553 0.0539476 0)
(1.05877 0.0683455 0)
(1.09057 0.0726563 0)
(1.11664 0.0722574 0)
(1.13706 0.0688875 0)
(1.15269 0.0633294 0)
(1.16411 0.0565473 0)
(1.17179 0.0495247 0)
(1.17635 0.0429435 0)
(1.17849 0.0371193 0)
(1.17887 0.032114 0)
(1.17803 0.0278633 0)
(1.17638 0.0242618 0)
(1.17423 0.0212044 0)
(1.1718 0.0185979 0)
(1.16924 0.0163513 0)
(1.16666 0.0143684 0)
(1.16409 0.0125512 0)
(1.16159 0.010817 0)
(1.15919 0.00911802 0)
(1.15692 0.00745102 0)
(1.15484 0.00585329 0)
(1.15301 0.00438545 0)
(1.15147 0.00310735 0)
(1.15024 0.00206023 0)
(1.14931 0.00125789 0)
(1.14865 0.000686988 0)
(1.14821 0.000313815 0)
(1.14793 9.47225e-05 0)
(1.14778 -1.56993e-05 0)
(1.1477 -5.8931e-05 0)
(1.14767 -6.50137e-05 0)
(1.14767 -5.42213e-05 0)
(1.14767 -3.85468e-05 0)
(1.14767 -2.41583e-05 0)
(1.14768 -1.33363e-05 0)
(1.14769 -6.24016e-06 0)
(1.14769 -2.13935e-06 0)
(1.14769 -1.21356e-07 0)
(1.14769 6.71007e-07 0)
(1.14769 8.33658e-07 0)
(1.14769 7.19226e-07 0)
(1.14769 5.25435e-07 0)
(1.14769 3.44232e-07 0)
(1.14769 2.06548e-07 0)
(1.14769 1.14047e-07 0)
(1.14769 5.74788e-08 0)
(1.14769 2.57281e-08 0)
(1.14769 9.43336e-09 0)
(1.14769 1.9744e-09 0)
(1.14769 -8.62965e-10 0)
(1.14769 -1.56301e-09 0)
(1.14769 -1.46047e-09 0)
(1.14769 -1.14993e-09 0)
(1.14769 -8.50049e-10 0)
(1.14769 -6.08056e-10 0)
(1.14769 -4.20092e-10 0)
(1.14769 -2.70539e-10 0)
(1.14769 -1.54883e-10 0)
(1.14769 -9.85845e-11 0)
(1.14769 -1.18541e-10 0)
(1.14769 -1.83976e-10 0)
(1.14769 -2.32282e-10 0)
(1.14769 -2.27747e-10 0)
(1.14769 -1.77079e-10 0)
(1.14769 -1.11937e-10 0)
(1.14769 -4.69875e-11 0)
(1.14769 2.49346e-11 0)
(1.14769 1.13578e-10 0)
(1.14769 2.0459e-10 0)
(1.14769 2.78476e-10 0)
(1.14769 3.00573e-10 0)
(1.14769 2.38984e-10 0)
(1.14769 9.69266e-11 0)
(1.14769 -6.29701e-11 0)
(1.14769 -1.6594e-10 0)
(1.14769 -1.7606e-10 0)
(1.14769 -1.172e-10 0)
(1.14769 -5.16433e-11 0)
(1.14769 -2.59756e-11 0)
(1.14769 -4.51869e-11 0)
(1.14769 -7.37077e-11 0)
(1.14769 -6.27937e-11 0)
(1.14769 5.17171e-12 0)
(1.14769 1.01705e-10 0)
(1.14769 1.60651e-10 0)
(1.14769 1.30475e-10 0)
(1.14769 1.80421e-11 0)
(1.14769 -1.07391e-10 0)
(1.14769 -1.7228e-10 0)
(1.14769 -1.34895e-10 0)
(1.14769 -3.15516e-11 0)
(1.14769 6.16261e-11 0)
(1.14769 8.01033e-11 0)
(1.14769 3.65731e-11 0)
(1.14769 -8.28512e-12 0)
(1.14769 1.38955e-11 0)
(1.14769 9.5311e-11 0)
(1.14769 1.69039e-10 0)
(1.14769 1.5345e-10 0)
(1.14769 4.14851e-11 0)
(1.14769 -6.54284e-11 0)
(1.14769 -7.40264e-11 0)
(1.14769 1.90866e-11 0)
(1.14769 1.20489e-10 0)
(1.14769 1.05059e-10 0)
(1.14769 -1.84895e-11 0)
(1.14769 -1.36598e-10 0)
(1.14769 -1.21824e-10 0)
(1.14769 -9.98365e-12 0)
(1.14769 5.64553e-11 0)
(1.14769 -2.26702e-11 0)
(1.14769 -1.71647e-10 0)
(1.14769 -2.44071e-10 0)
(1.14769 -1.66778e-10 0)
(1.14769 -5.50294e-11 0)
(1.14769 -1.20577e-11 0)
(1.14769 5.86411e-12 0)
(1.14769 8.93666e-11 0)
(1.14769 1.92382e-10 0)
(1.14769 1.51779e-10 0)
(1.14769 3.99737e-12 0)
(1.14769 -8.26404e-11 0)
(1.14769 7.88379e-11 0)
(1.14769 2.15329e-10 0)
(1.14769 2.34902e-10 0)
(1.14769 1.00444e-10 0)
(1.14769 5.72661e-11 0)
(1.14769 6.14941e-11 0)
(1.14769 -8.98412e-11 0)
(1.14769 -2.06987e-10 0)
(1.14769 -2.43596e-10 0)
(1.14769 -2.03861e-10 0)
(1.14769 -7.55231e-11 0)
(1.14769 2.1793e-11 0)
(1.14769 1.19419e-10 0)
(1.14769 -1.08082e-10 0)
(1.14769 -1.94959e-10 0)
(1.14769 1.21607e-10 0)
(1.14769 8.33786e-11 0)
(1.14769 1.9672e-10 0)
(1.14769 3.29495e-11 0)
(1.14769 -8.31755e-12 0)
(1.14769 -3.13172e-10 0)
(1.14769 -1.32284e-10 0)
(1.14769 -1.59946e-09 0)
(1.14769 -1.37781e-09 0)
(1.14769 -4.39214e-09 0)
(1.14769 2.21772e-09 0)
(1.00086 0.0537028 0)
(1.0315 0.0984002 0)
(1.05406 0.106344 0)