/*--------------------------------*- C++ -*----------------------------------*\
  =========                 |
  \\      /  F ield         | OpenFOAM: The Open Source CFD Toolbox
   \\    /   O peration     | Website:  https://openfoam.org
    \\  /    A nd           | Version:  7
     \\/     M anipulation  |
\*---------------------------------------------------------------------------*/
FoamFile
{
    version     2.0;
    format      ascii;
    class       volScalarField;
    location    "10";
    object      p;
}
// * * * * * * * * * * * * * * * * * * * * * * * * * * * * * * * * * * * * * //

dimensions      [0 2 -2 0 0 0 0];

internalField   nonuniform List<scalar> 
1500
(
1.88778
1.87686
1.85592
1.82768
1.7962
1.76436
1.73339
1.70377
1.67582
1.64981
1.62581
1.60365
1.58306
1.56375
1.54547
1.52804
1.51129
1.49512
1.47941
1.4641
1.44914
1.43447
1.42008
1.40593
1.39201
1.37829
1.36476
1.35141
1.33823
1.3252
1.31231
1.29956
1.28693
1.27443
1.26203
1.24973
1.23753
1.22542
1.2134
1.20146
1.18959
1.17779
1.16606
1.15439
1.14278
1.13122
1.11972
1.10826
1.09685
1.08548
1.07415
1.06286
1.05161
1.04038
1.02919
1.01803
1.0069
0.995794
0.984712
0.973653
0.962616
0.951599
0.940601
0.929622
0.918659
0.907713
0.896781
0.885864
0.87496
0.864068
0.853188
0.84232
0.831461
0.820613
0.809773
0.798943
0.78812
0.777305
0.766497
0.755696
0.744902
0.734113
0.72333
0.712553
0.70178
0.691012
0.680249
0.66949
0.658735
0.647983
0.637236
0.626491
0.61575
0.605013
0.594278
0.583546
0.572816
0.562089
0.551364
0.540642
0.529922
0.519203
0.508487
0.497772
0.487058
0.476346
0.465636
0.454926
0.444217
0.433509
0.422802
0.412096
0.40139
0.390685
0.37998
0.369275
0.35857
0.347866
0.337162
0.326458
0.315755
0.305051
0.294347
0.283644
0.27294
0.262236
0.251533
0.240829
0.230126
0.219422
0.208719
0.198015
0.187312
0.176608
0.165905
0.155201
0.144497
0.133794
0.12309
0.112387
0.101683
0.0909798
0.0802763
0.0695728
0.0588693
0.0481658
0.0374623
0.0267588
0.0160553
0.00535175
1.89973
1.88577
1.86067
1.82908
1.79567
1.76278
1.73112
1.70107
1.67301
1.64713
1.62341
1.60157
1.58131
1.56229
1.54426
1.52704
1.51046
1.49442
1.47882
1.46359
1.44869
1.43408
1.41973
1.40562
1.39173
1.37803
1.36453
1.3512
1.33803
1.32502
1.31215
1.29941
1.28679
1.2743
1.26191
1.24962
1.23743
1.22533
1.21331
1.20138
1.18951
1.17772
1.16599
1.15433
1.14272
1.13117
1.11967
1.10821
1.09681
1.08544
1.07411
1.06283
1.05157
1.04035
1.02917
1.01801
1.00688
0.99577
0.984689
0.973632
0.962596
0.95158
0.940584
0.929605
0.918644
0.907698
0.896768
0.885851
0.874948
0.864057
0.853178
0.84231
0.831452
0.820604
0.809765
0.798935
0.788113
0.777298
0.766491
0.75569
0.744896
0.734108
0.723325
0.712548
0.701775
0.691008
0.680245
0.669486
0.658731
0.64798
0.637232
0.626488
0.615748
0.60501
0.594275
0.583543
0.572814
0.562087
0.551362
0.54064
0.52992
0.519202
0.508485
0.49777
0.487057
0.476345
0.465635
0.454925
0.444216
0.433509
0.422802
0.412095
0.40139
0.390684
0.379979
0.369275
0.35857
0.347866
0.337162
0.326458
0.315754
0.305051
0.294347
0.283643
0.27294
0.262236
0.251533
0.240829
0.230126
0.219422
0.208719
0.198015
0.187312
0.176608
0.165905
0.155201
0.144497
0.133794
0.12309
0.112387
0.101683
0.0909798
0.0802763
0.0695728
0.0588693
0.0481658
0.0374623
0.0267588
0.0160553
0.00535175
1.92643
1.90332
1.86852
1.8306
1.79391
1.7591
1.72619
1.69553
1.66748
1.64206
1.61899
1.59786
1.57825
1.5598
1.54226
1.52542
1.50915
1.49335
1.47793
1.46285
1.44806
1.43353
1.41925
1.4052
1.39135
1.3777
1.36422
1.35092
1.33778
1.32479
1.31194
1.29922
1.28662
1.27413
1.26176
1.24948
1.2373
1.22521
1.2132
1.20128
1.18942
1.17763
1.16591
1.15425
1.14265
1.1311
1.11961
1.10816
1.09675
1.08539
1.07407
1.06278
1.05153
1.04032
1.02913
1.01797
1.00684
0.995741
0.984662
0.973606
0.962572
0.951557
0.940562
0.929585
0.918625
0.907681
0.896751
0.885836
0.874933
0.864043
0.853165
0.842298
0.831441
0.820593
0.809755
0.798926
0.788104
0.77729
0.766483
0.755683
0.744889
0.734101
0.723319
0.712542
0.70177
0.691003
0.68024
0.669481
0.658727
0.647976
0.637229
0.626485
0.615744
0.605007
0.594272
0.58354
0.572811
0.562084
0.55136
0.540638
0.529918
0.5192
0.508484
0.497769
0.487056
0.476344
0.465634
0.454924
0.444216
0.433508
0.422801
0.412095
0.401389
0.390684
0.379979
0.369274
0.35857
0.347866
0.337162
0.326458
0.315754
0.305051
0.294347
0.283643
0.27294
0.262236
0.251533
0.240829
0.230126
0.219422
0.208719
0.198015
0.187312
0.176608
0.165905
0.155201
0.144497
0.133794
0.12309
0.112387
0.101683
0.0909798
0.0802763
0.0695728
0.0588693
0.0481658
0.0374623
0.0267588
0.0160553
0.00535175
1.97434
1.92837
1.87596
1.82998
1.78978
1.75258
1.71816
1.68718
1.65979
1.63554
1.61373
1.59374
1.57508
1.55739
1.54043
1.52404
1.5081
1.49252
1.47726
1.46229
1.44759
1.43312
1.41889
1.40487
1.39106
1.37743
1.36398
1.3507
1.33758
1.3246
1.31177
1.29906
1.28647
1.274
1.26164
1.24937
1.2372
1.22512
1.21312
1.20119
1.18934
1.17756
1.16585
1.15419
1.14259
1.13105
1.11956
1.10811
1.09671
1.08535
1.07403
1.06275
1.0515
1.04028
1.0291
1.01795
1.00682
0.995716
0.984639
0.973585
0.962552
0.951539
0.940545
0.929569
0.91861
0.907666
0.896738
0.885823
0.874921
0.864032
0.853155
0.842288
0.831431
0.820585
0.809747
0.798918
0.788097
0.777283
0.766477
0.755677
0.744884
0.734096
0.723314
0.712537
0.701766
0.690999
0.680236
0.669478
0.658723
0.647973
0.637226
0.626482
0.615742
0.605004
0.59427
0.583538
0.572809
0.562083
0.551359
0.540637
0.529917
0.519199
0.508483
0.497768
0.487055
0.476344
0.465633
0.454924
0.444215
0.433508
0.422801
0.412095
0.401389
0.390684
0.379979
0.369274
0.35857
0.347866
0.337162
0.326458
0.315754
0.305051
0.294347
0.283643
0.27294
0.262236
0.251533
0.240829
0.230126
0.219422
0.208719
0.198015
0.187312
0.176608
0.165905
0.155201
0.144497
0.133794
0.12309
0.112387
0.101683
0.0909798
0.0802763
0.0695728
0.0588693
0.0481658
0.0374623
0.0267588
0.0160553
0.00535175
2.09941
1.97824
1.88993
1.83371
1.78912
1.74859
1.71208
1.68046
1.6534
1.62991
1.60899
1.58986
1.57198
1.55496
1.53853
1.52253
1.50688
1.49153
1.47644
1.46159
1.44697
1.43258
1.41841
1.40444
1.39066
1.37707
1.36365
1.3504
1.3373
1.32434
1.31153
1.29884
1.28627
1.27381
1.26146
1.2492
1.23704
1.22497
1.21298
1.20107
1.18922
1.17745
1.16574
1.15409
1.1425
1.13096
1.11948
1.10803
1.09664
1.08528
1.07397
1.06269
1.05144
1.04023
1.02905
1.0179
1.00678
0.995677
0.984602
0.97355
0.962519
0.951508
0.940516
0.929542
0.918584
0.907642
0.896715
0.885802
0.874901
0.864013
0.853137
0.842271
0.831416
0.82057
0.809733
0.798905
0.788085
0.777272
0.766466
0.755667
0.744874
0.734087
0.723306
0.71253
0.701758
0.690992
0.68023
0.669472
0.658718
0.647968
0.637221
0.626478
0.615738
0.605001
0.594267
0.583536
0.572807
0.562081
0.551357
0.540635
0.529916
0.519198
0.508482
0.497767
0.487055
0.476343
0.465633
0.454923
0.444215
0.433508
0.422801
0.412095
0.401389
0.390684
0.379979
0.369274
0.35857
0.347866
0.337162
0.326458
0.315754
0.305051
0.294347
0.283643
0.27294
0.262236
0.251533
0.240829
0.230126
0.219422
0.208719
0.198015
0.187312
0.176608
0.165905
0.155201
0.144497
0.133794
0.12309
0.112387
0.101683
0.0909798
0.0802763
0.0695728
0.0588693
0.0481658
0.0374623
0.0267588
0.0160553
0.00535175
1.88778
1.87686
1.85592
1.82768
1.7962
1.76436
1.73339
1.70377
1.67582
1.64981
1.62581
1.60365
1.58306
1.56375
1.54547
1.52804
1.51129
1.49512
1.47941
1.4641
1.44914
1.43447
1.42008
1.40593
1.39201
1.37829
1.36476
1.35141
1.33823
1.3252
1.31231
1.29956
1.28693
1.27443
1.26203
1.24973
1.23753
1.22542
1.2134
1.20146
1.18959
1.17779
1.16606
1.15439
1.14278
1.13122
1.11972
1.10826
1.09685
1.08548
1.07415
1.06286
1.05161
1.04038
1.02919
1.01803
1.0069
0.995794
0.984712
0.973653
0.962616
0.951599
0.940601
0.929622
0.918659
0.907713
0.896781
0.885864
0.87496
0.864068
0.853188
0.84232
0.831461
0.820613
0.809773
0.798943
0.78812
0.777305
0.766497
0.755696
0.744902
0.734113
0.72333
0.712553
0.70178
0.691012
0.680249
0.66949
0.658735
0.647983
0.637236
0.626491
0.61575
0.605013
0.594278
0.583546
0.572816
0.562089
0.551364
0.540642
0.529922
0.519203
0.508487
0.497772
0.487058
0.476346
0.465636
0.454926
0.444217
0.433509
0.422802
0.412096
0.40139
0.390685
0.37998
0.369275
0.35857
0.347866
0.337162
0.326458
0.315755
0.305051
0.294347
0.283644
0.27294
0.262236
0.251533
0.240829
0.230126
0.219422
0.208719
0.198015
0.187312
0.176608
0.165905
0.155201
0.144497
0.133794
0.12309
0.112387
0.101683
0.0909798
0.0802763
0.0695728
0.0588693
0.0481658
0.0374623
0.0267588
0.0160553
0.00535175
1.89973
1.88577
1.86067
1.82908
1.79567
1.76278
1.73112
1.70107
1.67301
1.64713
1.62341
1.60157
1.58131
1.56229
1.54426
1.52704
1.51046
1.49442
1.47882
1.46359
1.44869
1.43408
1.41973
1.40562
1.39173
1.37803
1.36453
1.3512
1.33803
1.32502
1.31215
1.29941
1.28679
1.2743
1.26191
1.24962
1.23743
1.22533
1.21331
1.20138
1.18951
1.17772
1.16599
1.15433
1.14272
1.13117
1.11967
1.10821
1.09681
1.08544
1.07411
1.06283
1.05157
1.04035
1.02917
1.01801
1.00688
0.99577
0.984689
0.973632
0.962596
0.95158
0.940584
0.929605
0.918644
0.907698
0.896768
0.885851
0.874948
0.864057
0.853178
0.84231
0.831452
0.820604
0.809765
0.798935
0.788113
0.777298
0.766491
0.75569
0.744896
0.734108
0.723325
0.712548
0.701775
0.691008
0.680245
0.669486
0.658731
0.64798
0.637232
0.626488
0.615748
0.60501
0.594275
0.583543
0.572814
0.562087
0.551362
0.54064
0.52992
0.519202
0.508485
0.49777
0.487057
0.476345
0.465635
0.454925
0.444216
0.433509
0.422802
0.412095
0.40139
0.390684
0.379979
0.369275
0.35857
0.347866
0.337162
0.326458
0.315754
0.305051
0.294347
0.283643
0.27294
0.262236
0.251533
0.240829
0.230126
0.219422
0.208719
0.198015
0.187312
0.176608
0.165905
0.155201
0.144497
0.133794
0.12309
0.112387
0.101683
0.0909798
0.0802763
0.0695728
0.0588693
0.0481658
0.0374623
0.0267588
0.0160553
0.00535175
1.92643
1.90332
1.86852
1.8306
1.79391
1.7591
1.72619
1.69553
1.66748
1.64206
1.61899
1.59786
1.57825
1.5598
1.54226
1.52542
1.50915
1.49335
1.47793
1.46285
1.44806
1.43353
1.41925
1.4052
1.39135
1.3777
1.36422
1.35092
1.33778
1.32479
1.31194
1.29922
1.28662
1.27413
1.26176
1.24948
1.2373
1.22521
1.2132
1.20128
1.18942
1.17763
1.16591
1.15425
1.14265
1.1311
1.11961
1.10816
1.09675
1.08539
1.07407
1.06278
1.05153
1.04032
1.02913
1.01797
1.00684
0.995741
0.984662
0.973606
0.962572
0.951557
0.940562
0.929585
0.918625
0.907681
0.896751
0.885836
0.874933
0.864043
0.853165
0.842298
0.831441
0.820593
0.809755
0.798926
0.788104
0.77729
0.766483
0.755683
0.744889
0.734101
0.723319
0.712542
0.70177
0.691003
0.68024
0.669481
0.658727
0.647976
0.637229
0.626485
0.615744
0.605007
0.594272
0.58354
0.572811
0.562084
0.55136
0.540638
0.529918
0.5192
0.508484
0.497769
0.487056
0.476344
0.465634
0.454924
0.444216
0.433508
0.422801
0.412095
0.401389
0.390684
0.379979
0.369274
0.35857
0.347866
0.337162
0.326458
0.315754
0.305051
0.294347
0.283643
0.27294
0.262236
0.251533
0.240829
0.230126
0.219422
0.208719
0.198015
0.187312
0.176608
0.165904
0.155201
0.144497
0.133794
0.12309
0.112387
0.101683
0.0909798
0.0802763
0.0695728
0.0588693
0.0481658
0.0374623
0.0267588
0.0160553
0.00535175
1.97434
1.92837
1.87596
1.82998
1.78978
1.75258
1.71816
1.68718
1.65979
1.63554
1.61373
1.59374
1.57508
1.55739
1.54043
1.52404
1.5081
1.49252
1.47726
1.46229
1.44759
1.43312
1.41889
1.40487
1.39106
1.37743
1.36398
1.3507
1.33758
1.3246
1.31177
1.29906
1.28647
1.274
1.26164
1.24937
1.2372
1.22512
1.21312
1.20119
1.18934
1.17756
1.16585
1.15419
1.14259
1.13105
1.11956
1.10811
1.09671
1.08535
1.07403
1.06275
1.0515
1.04028
1.0291
1.01795
1.00682
0.995716
0.984639
0.973585
0.962552
0.951539
0.940545
0.929569
0.91861
0.907666
0.896738
0.885823
0.874921
0.864032
0.853155
0.842288
0.831431
0.820585
0.809747
0.798918
0.788097
0.777283
0.766477
0.755677
0.744884
0.734096
0.723314
0.712537
0.701766
0.690999
0.680236
0.669478
0.658723
0.647973
0.637226
0.626482
0.615742
0.605004
0.59427
0.583538
0.572809
0.562083
0.551359
0.540637
0.529917
0.519199
0.508483
0.497768
0.487055
0.476344
0.465633
0.454924
0.444215
0.433508
0.422801
0.412095
0.401389
0.390684
0.379979
0.369274
0.35857
0.347866
0.337162
0.326458
0.315754
0.305051
0.294347
0.283643
0.27294
0.262236
0.251533
0.240829
0.230126
0.219422
0.208719
0.198015
0.187312
0.176608
0.165904
0.155201
0.144497
0.133794
0.12309
0.112387
0.101683
0.0909798
0.0802763
0.0695728
0.0588693
0.0481658
0.0374623
0.0267588
0.0160553
0.00535175
2.09941
1.97824
1.88993
1.83371
1.78912
1.74859
1.71208
1.68046
1.6534
1.62991
1.60899
1.58986
1.57198
1.55496
1.53853
1.52253
1.50688
1.49153
1.47644
1.46159
1.44697
1.43258
1.41841
1.40444
1.39066
1.37707
1.36365
1.3504
1.3373
1.32434
1.31153
1.29884
1.28627
1.27381
1.26146
1.2492
1.23704
1.22497
1.21298
1.20107
1.18922
1.17745
1.16574
1.15409
1.1425
1.13096
1.11948
1.10803
1.09664
1.08528
1.07397
1.06269
1.05144
1.04023
1.02905
1.0179
1.00678
0.995677
0.984602
0.97355
0.962519
0.951508
0.940516
0.929542
0.918584
0.907642
0.896715
0.885802
0.874901
0.864013
0.853137
0.842271
0.831416
0.82057
0.809733
0.798905
0.788085
0.777272
0.766466
0.755667
0.744874
0.734087
0.723306
0.71253
0.701758
0.690992
0.68023
0.669472
0.658718
0.647968
0.637221
0.626478
0.615738
0.605001
0.594267
0.583536
0.572807
0.562081
0.551357
0.540635
0.529916
0.519198
0.508482
0.497767
0.487055
0.476343
0.465633
0.454923
0.444215
0.433508
0.422801
0.412095
0.401389
0.390684
0.379979
0.369274
0.35857
0.347866
0.337162
0.326458
0.315754
0.305051
0.294347
0.283643
0.27294
0.262236
0.251533
0.240829
0.230126
0.219422
0.208719
0.198015
0.187312
0.176608
0.165904
0.155201
0.144497
0.133794
0.12309
0.112387
0.101683
0.0909798
0.0802763
0.0695728
0.0588693
0.0481658
0.0374623
0.0267588
0.0160553
0.00535175
)
;

boundaryField
{
    inlet
    {
        type            zeroGradient;
    }
    outlet
    {
        type            fixedValue;
        value           uniform 0;
    }
    top
    {
        type            zeroGradient;
    }
    bottom
    {
        type            zeroGradient;
    }
    defaultFaces
    {
        type            empty;
    }
}


// ************************************************************************* //
