/*--------------------------------*- C++ -*----------------------------------*\
  =========                 |
  \\      /  F ield         | OpenFOAM: The Open Source CFD Toolbox
   \\    /   O peration     | Website:  https://openfoam.org
    \\  /    A nd           | Version:  7
     \\/     M anipulation  |
\*---------------------------------------------------------------------------*/
FoamFile
{
    version     2.0;
    format      ascii;
    class       surfaceScalarField;
    location    "10";
    object      phi;
}
// * * * * * * * * * * * * * * * * * * * * * * * * * * * * * * * * * * * * * //

dimensions      [0 3 -1 0 0 0 0];

internalField   nonuniform List<scalar> 
2840
(
0.0100654
-6.53948e-05
-7.86037e-14
0.0102509
-0.000185527
-6.84561e-12
0.0105092
-0.000258238
-5.64354e-12
0.0107948
-0.000285639
-2.40733e-12
0.011085
-0.000290163
3.46843e-12
0.011369
-0.000284043
3.28039e-13
0.0116389
-0.000269847
-1.94691e-12
0.0118879
-0.000249016
-1.94082e-12
0.0121128
-0.000224953
-2.00386e-13
0.0123143
-0.000201452
-2.60435e-13
0.0124944
-0.000180118
-1.12313e-12
0.0126558
-0.000161392
-1.25608e-12
0.012801
-0.000145217
-8.83698e-13
0.0129324
-0.000131362
3.93646e-13
0.0130519
-0.000119524
8.74254e-13
0.0131613
-0.00010938
2.8981e-13
0.0132619
-0.000100623
-4.02081e-13
0.0133549
-9.29815e-05
-1.41615e-12
0.0134411
-8.62254e-05
-2.58289e-12
0.0135213
-8.01763e-05
-2.12442e-12
0.013596
-7.47013e-05
-1.26071e-12
0.0136657
-6.97025e-05
-9.66018e-13
0.0137308
-6.51077e-05
-1.19928e-12
0.0137916
-6.08629e-05
-2.02293e-12
0.0138486
-5.6927e-05
-1.46983e-12
0.0139018
-5.32681e-05
-8.79098e-13
0.0139517
-4.98608e-05
-1.2701e-12
0.0139984
-4.66841e-05
-7.9425e-13
0.0140421
-4.37199e-05
5.92126e-13
0.0140831
-4.09524e-05
4.83993e-13
0.0141214
-3.83675e-05
2.11491e-14
0.0141574
-3.59522e-05
5.98958e-13
0.0141911
-3.36947e-05
1.59088e-12
0.0142227
-3.15841e-05
1.78259e-12
0.0142523
-2.96104e-05
1.7574e-12
0.01428
-2.77641e-05
1.68573e-12
0.0143061
-2.60366e-05
1.53813e-12
0.0143305
-2.44198e-05
2.01618e-12
0.0143534
-2.29064e-05
2.41112e-12
0.0143749
-2.14893e-05
3.30354e-12
0.014395
-2.01621e-05
2.34788e-12
0.014414
-1.89189e-05
1.52963e-12
0.0144317
-1.77542e-05
2.21461e-12
0.0144484
-1.66627e-05
3.59524e-12
0.014464
-1.56397e-05
3.3662e-12
0.0144787
-1.46807e-05
1.83013e-12
0.0144925
-1.37816e-05
1.10775e-12
0.0145054
-1.29385e-05
9.98125e-13
0.0145176
-1.21478e-05
1.02385e-12
0.014529
-1.14061e-05
8.56504e-13
0.0145397
-1.07104e-05
8.02264e-13
0.0145497
-1.00577e-05
4.37338e-13
0.0145592
-9.44522e-06
-1.00475e-12
0.0145681
-8.87051e-06
-1.63459e-12
0.0145764
-8.33116e-06
-2.63828e-13
0.0145842
-7.82496e-06
8.24893e-13
0.0145916
-7.34981e-06
-9.64315e-14
0.0145985
-6.90378e-06
-1.05733e-12
0.014605
-6.48506e-06
-1.45155e-12
0.014611
-6.09195e-06
-1.52464e-12
0.0146168
-5.72285e-06
-1.96075e-12
0.0146221
-5.37627e-06
-1.54586e-12
0.0146272
-5.05083e-06
-7.28257e-13
0.0146319
-4.74522e-06
-1.35613e-12
0.0146364
-4.45821e-06
-2.30916e-12
0.0146406
-4.18867e-06
-2.00397e-12
0.0146445
-3.93551e-06
-1.03637e-12
0.0146482
-3.69773e-06
-6.40085e-13
0.0146517
-3.47439e-06
-9.70891e-13
0.014655
-3.2646e-06
-8.3591e-13
0.014658
-3.06752e-06
-4.36139e-13
0.0146609
-2.88238e-06
-4.92131e-13
0.0146636
-2.70845e-06
-8.7389e-13
0.0146662
-2.54503e-06
-5.08972e-13
0.0146686
-2.39147e-06
8.44022e-13
0.0146708
-2.24715e-06
1.10616e-12
0.0146729
-2.1115e-06
3.37271e-13
0.0146749
-1.98396e-06
-7.30585e-15
0.0146768
-1.864e-06
3.2333e-14
0.0146785
-1.75113e-06
-1.19751e-13
0.0146802
-1.64486e-06
-5.65411e-13
0.0146817
-1.54474e-06
-6.68677e-13
0.0146832
-1.45032e-06
-6.56087e-14
0.0146845
-1.36118e-06
8.32971e-13
0.0146858
-1.27693e-06
1.7157e-12
0.014687
-1.19717e-06
1.25032e-12
0.0146881
-1.12154e-06
-3.9472e-13
0.0146892
-1.04968e-06
-1.54953e-12
0.0146901
-9.81289e-07
-6.43263e-13
0.0146911
-9.16055e-07
1.20205e-12
0.0146919
-8.53719e-07
1.25472e-12
0.0146927
-7.94045e-07
-7.7231e-14
0.0146934
-7.36834e-07
-4.65767e-13
0.0146941
-6.81922e-07
1.36385e-13
0.0146948
-6.29185e-07
1.20456e-12
0.0146953
-5.78536e-07
1.36558e-12
0.0146959
-5.29925e-07
8.2163e-13
0.0146963
-4.83333e-07
4.94349e-13
0.0146968
-4.38775e-07
1.99027e-13
0.0146972
-3.96293e-07
2.63053e-13
0.0146975
-3.55944e-07
-6.34281e-13
0.0146979
-3.17794e-07
-1.90106e-12
0.0146981
-2.81915e-07
-2.19857e-12
0.0146984
-2.48379e-07
-1.88933e-12
0.0146986
-2.17247e-07
-1.83374e-12
0.0146988
-1.88562e-07
-2.93221e-12
0.014699
-1.62345e-07
-3.44716e-12
0.0146991
-1.38588e-07
-3.14289e-12
0.0146992
-1.17256e-07
-2.29371e-12
0.0146993
-9.82866e-08
-1.56102e-12
0.0146994
-8.15878e-08
-6.71921e-13
0.0146995
-6.70445e-08
-6.73617e-14
0.0146995
-5.45183e-08
3.29785e-13
0.0146996
-4.38513e-08
6.22219e-14
0.0146996
-3.48732e-08
1.1515e-12
0.0146996
-2.74078e-08
2.24342e-12
0.0146996
-2.12806e-08
2.35805e-12
0.0146997
-1.63169e-08
2.43041e-12
0.0146997
-1.23483e-08
1.85748e-12
0.0146997
-9.21978e-09
1.3008e-12
0.0146997
-6.78853e-09
1.1793e-12
0.0146997
-4.92495e-09
1.47703e-12
0.0146997
-3.51686e-09
2.86613e-12
0.0146997
-2.47135e-09
3.18645e-12
0.0146997
-1.71059e-09
2.3796e-12
0.0146997
-1.1646e-09
7.09098e-13
0.0146997
-7.7745e-10
-3.03689e-13
0.0146997
-5.07769e-10
1.04174e-12
0.0146997
-3.23973e-10
2.38973e-12
0.0146997
-2.01677e-10
1.95994e-12
0.0146997
-1.23014e-10
2.83182e-13
0.0146997
-7.38044e-11
-3.72669e-13
0.0146997
-4.29201e-11
5.95109e-13
0.0146997
-2.42215e-11
2.00281e-12
0.0146997
-1.32752e-11
2.74719e-12
0.0146997
-7.68605e-12
2.67003e-12
0.0146997
-3.67438e-12
2.51323e-12
0.0146997
-2.92625e-12
1.2052e-12
0.0146997
-3.59513e-12
2.00279e-12
0.0146997
-3.09986e-12
2.36191e-12
0.0146997
-3.56044e-12
2.74551e-12
0.0146997
-3.67053e-12
3.12995e-12
0.0146997
-1.31233e-12
1.96389e-12
0.0146997
-2.58715e-12
1.45214e-12
0.0146997
-3.11e-12
2.27207e-12
0.0146997
-3.80121e-13
2.59866e-12
0.0146997
-2.29867e-12
2.76933e-12
0.0146997
-5.19379e-12
1.10705e-12
0.0146997
-7.30605e-12
-1.07568e-12
-8.66351e-12
7.41351e-13
0.0100904
-0.000155813
0.0103203
-0.000415448
0.0106081
-0.000546036
0.010907
-0.000584492
0.0111994
-0.000582543
0.0114749
-0.000559576
0.0117244
-0.000519352
0.0119428
-0.000467393
0.0121302
-0.000412394
0.0122896
-0.000360848
0.0124248
-0.000315273
0.0125396
-0.000276184
0.0126376
-0.000243205
0.0127218
-0.000215612
0.0127948
-0.000192537
0.0128586
-0.000173198
0.0129149
-0.000156881
0.0129649
-0.000142959
0.0130096
-0.00013092
0.0130498
-0.000120371
0.0130861
-0.000111019
0.013119
-0.000102645
0.013149
-9.50873e-05
0.0131764
-8.8222e-05
0.0132014
-8.19552e-05
0.0132243
-7.62132e-05
0.0132454
-7.09371e-05
0.0132648
-6.60783e-05
0.0132827
-6.15958e-05
0.0132992
-5.74544e-05
0.0133144
-5.36233e-05
0.0133286
-5.00751e-05
0.0133417
-4.67854e-05
0.0133538
-4.37324e-05
0.0133651
-4.08965e-05
0.0133756
-3.826e-05
0.0133854
-3.58069e-05
0.0133945
-3.35226e-05
0.0134029
-3.1394e-05
0.0134109
-2.94091e-05
0.0134183
-2.75572e-05
0.0134252
-2.58282e-05
0.0134316
-2.42132e-05
0.0134377
-2.27039e-05
0.0134433
-2.12927e-05
0.0134486
-1.99727e-05
0.0134536
-1.87375e-05
0.0134582
-1.75813e-05
0.0134626
-1.64987e-05
0.0134666
-1.54846e-05
0.0134705
-1.45345e-05
0.0134741
-1.36441e-05
0.0134774
-1.28094e-05
0.0134806
-1.20269e-05
0.0134835
-1.12931e-05
0.0134863
-1.06048e-05
0.0134889
-9.95917e-06
0.0134914
-9.35341e-06
0.0134937
-8.785e-06
0.0134958
-8.25157e-06
0.0134979
-7.7509e-06
0.0134998
-7.28094e-06
0.0135016
-6.83976e-06
0.0135032
-6.42556e-06
0.0135048
-6.03665e-06
0.0135063
-5.67147e-06
0.0135077
-5.32854e-06
0.013509
-5.00648e-06
0.0135102
-4.70402e-06
0.0135114
-4.41993e-06
0.0135125
-4.15308e-06
0.0135135
-3.90241e-06
0.0135144
-3.66692e-06
0.0135153
-3.44568e-06
0.0135162
-3.23778e-06
0.013517
-3.0424e-06
0.0135177
-2.85874e-06
0.0135184
-2.68604e-06
0.0135191
-2.52359e-06
0.0135197
-2.37071e-06
0.0135203
-2.22672e-06
0.0135208
-2.09102e-06
0.0135214
-1.96298e-06
0.0135218
-1.84203e-06
0.0135223
-1.72762e-06
0.0135227
-1.6192e-06
0.0135231
-1.51628e-06
0.0135235
-1.41839e-06
0.0135238
-1.32508e-06
0.0135241
-1.23597e-06
0.0135244
-1.1507e-06
0.0135247
-1.06896e-06
0.013525
-9.90503e-07
0.0135252
-9.15127e-07
0.0135254
-8.42689e-07
0.0135256
-7.73101e-07
0.0135258
-7.06324e-07
0.0135259
-6.42367e-07
0.0135261
-5.81276e-07
0.0135262
-5.23132e-07
0.0135263
-4.68034e-07
0.0135264
-4.16092e-07
0.0135265
-3.67416e-07
0.0135266
-3.22104e-07
0.0135266
-2.80233e-07
0.0135267
-2.4185e-07
0.0135267
-2.06963e-07
0.0135268
-1.75544e-07
0.0135268
-1.47518e-07
0.0135268
-1.22772e-07
0.0135269
-1.01149e-07
0.0135269
-8.24649e-08
0.0135269
-6.65036e-08
0.0135269
-5.30282e-08
0.0135269
-4.17896e-08
0.0135269
-3.25348e-08
0.0135269
-2.50122e-08
0.0135269
-1.89783e-08
0.0135269
-1.42056e-08
0.0135269
-1.04842e-08
0.0135269
-7.62421e-09
0.0135269
-5.46011e-09
0.0135269
-3.84768e-09
0.0135269
-2.66678e-09
0.0135269
-1.81612e-09
0.0135269
-1.21342e-09
0.0135269
-7.93775e-10
0.0135269
-5.07419e-10
0.0135269
-3.1678e-10
0.0135269
-1.9184e-10
0.0135269
-1.12378e-10
0.0135269
-6.42224e-11
0.0135269
-3.61234e-11
0.0135269
-2.03655e-11
0.0135269
-1.15096e-11
0.0135269
-5.73657e-12
0.0135269
-2.94274e-12
0.0135269
-3.28839e-12
0.0135269
-4.52679e-12
0.0135269
-5.55826e-12
0.0135269
-3.44776e-12
0.0135269
-1.83601e-12
0.0135269
-1.52965e-12
0.0135269
-6.90369e-13
0.0135269
-1.84699e-12
0.0135269
-3.3835e-12
0.0135269
-2.97244e-12
0.0135269
-6.86149e-12
0.0135269
-8.58323e-12
-1.17332e-11
0.0101711
-0.000326946
0.0104732
-0.000717559
0.0107747
-0.000847477
0.0110406
-0.000850383
0.0112685
-0.000810501
0.0114512
-0.000742277
0.0115865
-0.000654645
0.0116798
-0.000560625
0.0117389
-0.000471526
0.0117714
-0.000393394
0.011784
-0.000327847
0.0117821
-0.000274298
0.0117703
-0.000231338
0.0117519
-0.000197301
0.0117296
-0.000170143
0.0117048
-0.00014849
0.0116791
-0.000131101
0.011653
-0.000116939
0.0116273
-0.000105206
0.0116023
-9.53146e-05
0.0115781
-8.68355e-05
0.0115549
-7.94598e-05
0.0115328
-7.29644e-05
0.0115118
-6.71866e-05
0.0114918
-6.20065e-05
0.0114729
-5.73335e-05
0.0114551
-5.30979e-05
0.0114382
-4.92443e-05
0.0114224
-4.57272e-05
0.0114074
-4.25091e-05
0.0113934
-3.95577e-05
0.0113801
-3.68454e-05
0.0113677
-3.43482e-05
0.011356
-3.20451e-05
0.011345
-2.99175e-05
0.0113347
-2.79491e-05
0.011325
-2.61255e-05
0.011316
-2.44338e-05
0.0113074
-2.28627e-05
0.0112994
-2.14018e-05
0.0112919
-2.00421e-05
0.0112848
-1.87755e-05
0.0112782
-1.75945e-05
0.011272
-1.64925e-05
0.0112662
-1.54635e-05
0.0112607
-1.45021e-05
0.0112556
-1.36034e-05
0.0112508
-1.27627e-05
0.0112462
-1.1976e-05
0.011242
-1.12396e-05
0.011238
-1.05499e-05
0.0112343
-9.90376e-06
0.0112308
-9.29825e-06
0.0112275
-8.73065e-06
0.0112244
-8.19845e-06
0.0112215
-7.69933e-06
0.0112187
-7.23115e-06
0.0112162
-6.7919e-06
0.0112138
-6.37972e-06
0.0112115
-5.99289e-06
0.0112094
-5.62981e-06
0.0112074
-5.28896e-06
0.0112055
-4.96896e-06
0.0112038
-4.6685e-06
0.0112021
-4.38636e-06
0.0112006
-4.1214e-06
0.0111991
-3.87255e-06
0.0111977
-3.63883e-06
0.0111965
-3.4193e-06
0.0111953
-3.21308e-06
0.0111941
-3.01936e-06
0.0111931
-2.83736e-06
0.0111921
-2.66636e-06
0.0111911
-2.50568e-06
0.0111902
-2.35468e-06
0.0111894
-2.21274e-06
0.0111886
-2.0793e-06
0.0111879
-1.95379e-06
0.0111872
-1.8357e-06
0.0111866
-1.72452e-06
0.011186
-1.61977e-06
0.0111854
-1.52099e-06
0.0111848
-1.42772e-06
0.0111843
-1.33954e-06
0.0111839
-1.25604e-06
0.0111834
-1.17682e-06
0.011183
-1.10151e-06
0.0111826
-1.02978e-06
0.0111823
-9.61301e-07
0.0111819
-8.95796e-07
0.0111816
-8.33018e-07
0.0111813
-7.72758e-07
0.011181
-7.1485e-07
0.0111808
-6.59172e-07
0.0111805
-6.05643e-07
0.0111803
-5.54224e-07
0.0111801
-5.04912e-07
0.0111799
-4.57739e-07
0.0111798
-4.12763e-07
0.0111796
-3.7006e-07
0.0111795
-3.29716e-07
0.0111794
-2.91822e-07
0.0111792
-2.56459e-07
0.0111791
-2.23694e-07
0.0111791
-1.93576e-07
0.011179
-1.66123e-07
0.0111789
-1.41324e-07
0.0111789
-1.19133e-07
0.0111788
-9.94736e-08
0.0111788
-8.22381e-08
0.0111787
-6.72923e-08
0.0111787
-5.44769e-08
0.0111787
-4.36148e-08
0.0111787
-3.45186e-08
0.0111787
-2.69954e-08
0.0111786
-2.08527e-08
0.0111786
-1.59034e-08
0.0111786
-1.19686e-08
0.0111786
-8.884e-09
0.0111786
-6.50069e-09
0.0111786
-4.68568e-09
0.0111786
-3.32458e-09
0.0111786
-2.32148e-09
0.0111786
-1.59413e-09
0.0111786
-1.07493e-09
0.0111786
-7.09734e-10
0.0111786
-4.58007e-10
0.0111786
-2.88541e-10
0.0111786
-1.76741e-10
0.0111786
-1.05559e-10
0.0111786
-6.19342e-11
0.0111786
-3.54851e-11
0.0111786
-1.96826e-11
0.0111786
-1.03725e-11
0.0111786
-5.30719e-12
0.0111786
-3.1588e-12
0.0111786
-2.40202e-12
0.0111786
-3.47332e-12
0.0111786
-3.73482e-12
0.0111786
-2.29071e-12
0.0111786
-2.06209e-12
0.0111786
-1.3165e-12
0.0111786
-1.20447e-12
0.0111786
-2.68233e-12
0.0111786
3.45777e-13
0.0111786
-1.47516e-12
0.0111786
-6.55691e-12
0.0111786
-5.25033e-12
0.0111786
-6.11635e-12
-7.6275e-12
0.0102853
-0.000612233
0.010502
-0.000934222
0.010561
-0.000906489
0.0105323
-0.000821727
0.0104404
-0.000718563
0.0102934
-0.000595323
0.0101153
-0.000476506
0.00992525
-0.000370605
0.00973609
-0.00028236
0.00955532
-0.000212629
0.00938717
-0.000159696
0.00923369
-0.000120812
0.00909533
-9.29808e-05
0.00897142
-7.33914e-05
0.00886095
-5.96744e-05
0.0087625
-5.00354e-05
0.00867456
-4.31619e-05
0.00859574
-3.81188e-05
0.0085248
-3.4266e-05
0.00846067
-3.1185e-05
0.00840244
-2.86125e-05
0.00834937
-2.63873e-05
0.00830082
-2.44122e-05
0.00825626
-2.26289e-05
0.00821526
-2.10022e-05
0.00817743
-1.95098e-05
0.00814247
-1.81367e-05
0.0081101
-1.68716e-05
0.00808008
-1.57055e-05
0.0080522
-1.463e-05
0.00802628
-1.36376e-05
0.00800216
-1.27214e-05
0.00797968
-1.18747e-05
0.00795873
-1.10917e-05
0.00793918
-1.03666e-05
0.00792092
-9.69446e-06
0.00790387
-9.07073e-06
0.00788793
-8.49125e-06
0.00787302
-7.95228e-06
0.00785906
-7.45049e-06
0.007846
-6.98287e-06
0.00783378
-6.54669e-06
0.00782232
-6.13951e-06
0.00781159
-5.75914e-06
0.00780153
-5.40356e-06
0.0077921
-5.07096e-06
0.00778325
-4.75969e-06
0.00777496
-4.46825e-06
0.00776718
-4.19525e-06
0.00775988
-3.93943e-06
0.00775303
-3.69962e-06
0.0077466
-3.47476e-06
0.00774056
-3.26385e-06
0.0077349
-3.06599e-06
0.00772958
-2.88032e-06
0.00772459
-2.70606e-06
0.0077199
-2.54248e-06
0.0077155
-2.38891e-06
0.00771136
-2.24471e-06
0.00770748
-2.10929e-06
0.00770383
-1.98211e-06
0.0077004
-1.86265e-06
0.00769718
-1.75044e-06
0.00769416
-1.64503e-06
0.00769132
-1.546e-06
0.00768865
-1.45295e-06
0.00768615
-1.36553e-06
0.00768379
-1.28339e-06
0.00768158
-1.20621e-06
0.0076795
-1.13368e-06
0.00767754
-1.06553e-06
0.00767571
-1.00148e-06
0.00767398
-9.41294e-07
0.00767236
-8.84726e-07
0.00767084
-8.31556e-07
0.00766941
-7.81571e-07
0.00766806
-7.34572e-07
0.0076668
-6.90366e-07
0.00766561
-6.48772e-07
0.0076645
-6.09611e-07
0.00766345
-5.72716e-07
0.00766247
-5.37923e-07
0.00766154
-5.05074e-07
0.00766068
-4.74017e-07
0.00765987
-4.44607e-07
0.00765911
-4.16703e-07
0.0076584
-3.90174e-07
0.00765773
-3.64897e-07
0.00765711
-3.4076e-07
0.00765653
-3.17661e-07
0.007656
-2.95513e-07
0.0076555
-2.74242e-07
0.00765504
-2.53788e-07
0.00765461
-2.34108e-07
0.00765422
-2.15175e-07
0.00765386
-1.96975e-07
0.00765354
-1.79509e-07
0.00765324
-1.62791e-07
0.00765298
-1.46842e-07
0.00765274
-1.31689e-07
0.00765253
-1.17365e-07
0.00765234
-1.03905e-07
0.00765217
-9.13402e-08
0.00765203
-7.96957e-08
0.0076519
-6.89877e-08
0.0076518
-5.92232e-08
0.00765171
-5.03999e-08
0.00765163
-4.25034e-08
0.00765157
-3.55069e-08
0.00765151
-2.93722e-08
0.00765147
-2.40501e-08
0.00765143
-1.9483e-08
0.00765141
-1.56074e-08
0.00765138
-1.23594e-08
0.00765137
-9.67251e-09
0.00765135
-7.47896e-09
0.00765134
-5.71017e-09
0.00765134
-4.30254e-09
0.00765133
-3.19741e-09
0.00765133
-2.34163e-09
0.00765132
-1.68998e-09
0.00765132
-1.20176e-09
0.00765132
-8.4209e-10
0.00765132
-5.80166e-10
0.00765132
-3.91172e-10
0.00765132
-2.57291e-10
0.00765132
-1.65599e-10
0.00765132
-1.04882e-10
0.00765132
-6.55736e-11
0.00765132
-4.01727e-11
0.00765132
-2.35586e-11
0.00765132
-1.34143e-11
0.00765132
-7.83654e-12
0.00765132
-3.48633e-12
0.00765132
-1.00109e-12
0.00765132
-1.55563e-12
0.00765132
-2.23129e-12
0.00765132
-1.80164e-12
0.00765132
-1.50454e-12
0.00765132
-8.82115e-14
0.00765132
5.88177e-13
0.00765132
-1.01285e-13
0.00765132
-1.11138e-13
0.00765132
-5.63561e-13
0.00765132
-1.55571e-12
0.00765132
-3.82342e-13
0.00765132
-8.47833e-13
0.00765132
-1.89697e-12
0.00765132
-4.27443e-12
-4.43399e-12
0.00938777
0.00845354
0.00754706
0.00672533
0.00600677
0.00541144
0.00493494
0.00456433
0.00428197
0.00406934
0.00390965
0.00378883
0.00369585
0.00362246
0.00356279
0.00351275
0.00346959
0.00343147
0.00339721
0.00336602
0.00333741
0.00331102
0.00328661
0.00326398
0.00324298
0.00322347
0.00320533
0.00318846
0.00317275
0.00315812
0.00314449
0.00313177
0.00311989
0.0031088
0.00309843
0.00308874
0.00307967
0.00307118
0.00306322
0.00305577
0.00304879
0.00304224
0.0030361
0.00303034
0.00302494
0.00301987
0.00301511
0.00301064
0.00300645
0.00300251
0.00299881
0.00299533
0.00299207
0.002989
0.00298612
0.00298342
0.00298087
0.00297849
0.00297624
0.00297413
0.00297215
0.00297029
0.00296854
0.00296689
0.00296535
0.00296389
0.00296253
0.00296124
0.00296004
0.0029589
0.00295784
0.00295684
0.0029559
0.00295501
0.00295418
0.0029534
0.00295266
0.00295197
0.00295132
0.00295071
0.00295014
0.0029496
0.0029491
0.00294862
0.00294818
0.00294776
0.00294737
0.00294701
0.00294667
0.00294635
0.00294605
0.00294578
0.00294553
0.00294529
0.00294508
0.00294488
0.0029447
0.00294454
0.00294439
0.00294426
0.00294414
0.00294404
0.00294395
0.00294387
0.0029438
0.00294374
0.00294369
0.00294365
0.00294361
0.00294358
0.00294356
0.00294354
0.00294352
0.00294351
0.0029435
0.00294349
0.00294349
0.00294348
0.00294348
0.00294348
0.00294347
0.00294347
0.00294347
0.00294347
0.00294347
0.00294347
0.00294347
0.00294347
0.00294347
0.00294347
0.00294347
0.00294347
0.00294347
0.00294347
0.00294347
0.00294347
0.00294347
0.00294347
0.00294347
0.00294347
0.00294347
0.00294347
0.00294347
0.00294347
0.00294347
0.00294347
0.00294347
0.00294347
0.00294347
0.0100654
-6.53948e-05
0.0102509
-0.000185527
0.0105092
-0.000258238
0.0107948
-0.000285639
0.011085
-0.000290163
0.011369
-0.000284043
0.0116389
-0.000269847
0.0118879
-0.000249016
0.0121128
-0.000224953
0.0123143
-0.000201452
0.0124944
-0.000180118
0.0126558
-0.000161392
0.012801
-0.000145217
0.0129324
-0.000131362
0.0130519
-0.000119524
0.0131613
-0.00010938
0.0132619
-0.000100623
0.0133549
-9.29815e-05
0.0134411
-8.62254e-05
0.0135213
-8.01763e-05
0.013596
-7.47013e-05
0.0136657
-6.97025e-05
0.0137308
-6.51077e-05
0.0137916
-6.08629e-05
0.0138486
-5.6927e-05
0.0139018
-5.32681e-05
0.0139517
-4.98608e-05
0.0139984
-4.66841e-05
0.0140421
-4.37199e-05
0.0140831
-4.09524e-05
0.0141214
-3.83675e-05
0.0141574
-3.59522e-05
0.0141911
-3.36947e-05
0.0142227
-3.15841e-05
0.0142523
-2.96104e-05
0.01428
-2.77641e-05
0.0143061
-2.60366e-05
0.0143305
-2.44198e-05
0.0143534
-2.29064e-05
0.0143749
-2.14893e-05
0.014395
-2.01621e-05
0.014414
-1.89189e-05
0.0144317
-1.77542e-05
0.0144484
-1.66627e-05
0.014464
-1.56397e-05
0.0144787
-1.46807e-05
0.0144925
-1.37816e-05
0.0145054
-1.29385e-05
0.0145176
-1.21478e-05
0.014529
-1.14061e-05
0.0145397
-1.07104e-05
0.0145497
-1.00577e-05
0.0145592
-9.44522e-06
0.0145681
-8.87051e-06
0.0145764
-8.33116e-06
0.0145842
-7.82496e-06
0.0145916
-7.34981e-06
0.0145985
-6.90378e-06
0.014605
-6.48506e-06
0.014611
-6.09195e-06
0.0146168
-5.72285e-06
0.0146221
-5.37627e-06
0.0146272
-5.05083e-06
0.0146319
-4.74522e-06
0.0146364
-4.45822e-06
0.0146406
-4.18867e-06
0.0146445
-3.93551e-06
0.0146482
-3.69773e-06
0.0146517
-3.47439e-06
0.014655
-3.2646e-06
0.014658
-3.06752e-06
0.0146609
-2.88238e-06
0.0146636
-2.70845e-06
0.0146662
-2.54503e-06
0.0146686
-2.39147e-06
0.0146708
-2.24715e-06
0.0146729
-2.1115e-06
0.0146749
-1.98396e-06
0.0146768
-1.864e-06
0.0146785
-1.75113e-06
0.0146802
-1.64486e-06
0.0146817
-1.54473e-06
0.0146832
-1.45032e-06
0.0146845
-1.36118e-06
0.0146858
-1.27693e-06
0.014687
-1.19717e-06
0.0146881
-1.12154e-06
0.0146892
-1.04968e-06
0.0146901
-9.81286e-07
0.0146911
-9.16052e-07
0.0146919
-8.53716e-07
0.0146927
-7.94043e-07
0.0146934
-7.36831e-07
0.0146941
-6.81917e-07
0.0146948
-6.29178e-07
0.0146953
-5.7853e-07
0.0146959
-5.29919e-07
0.0146963
-4.83328e-07
0.0146968
-4.38771e-07
0.0146972
-3.96289e-07
0.0146975
-3.55939e-07
0.0146979
-3.17788e-07
0.0146981
-2.81911e-07
0.0146984
-2.48378e-07
0.0146986
-2.17248e-07
0.0146988
-1.88564e-07
0.014699
-1.62345e-07
0.0146991
-1.38587e-07
0.0146992
-1.17254e-07
0.0146993
-9.82841e-08
0.0146994
-8.15852e-08
0.0146995
-6.70424e-08
0.0146995
-5.45153e-08
0.0146996
-4.38459e-08
0.0146996
-3.48669e-08
0.0146996
-2.74037e-08
0.0146996
-2.12781e-08
0.0146997
-1.63142e-08
0.0146997
-1.23444e-08
0.0146997
-9.21527e-09
0.0146997
-6.78319e-09
0.0146997
-4.91917e-09
0.0146997
-3.51257e-09
0.0146997
-2.46939e-09
0.0146997
-1.70838e-09
0.0146997
-1.16023e-09
0.0146997
-7.71862e-10
0.0146997
-5.02791e-10
0.0146997
-3.2097e-10
0.0146997
-1.99951e-10
0.0146997
-1.21157e-10
0.0146997
-7.18749e-11
0.0146997
-4.12957e-11
0.0146997
-2.21864e-11
0.0146997
-1.04165e-11
0.0146997
-4.88516e-12
0.0146997
-2.09637e-12
0.0146997
-3.42042e-13
0.0146997
5.35067e-13
0.0146997
1.13755e-12
0.0146997
2.95702e-12
0.0146997
2.68755e-12
0.0146997
2.41987e-12
0.0146997
1.53834e-12
0.0146997
-2.94317e-13
0.0146997
1.06397e-12
0.0146997
-2.15841e-13
0.0146997
-7.56539e-12
0.0146997
-6.1282e-12
-9.66864e-12
0.0100904
-0.000155813
0.0103203
-0.000415448
0.0106081
-0.000546036
0.010907
-0.000584492
0.0111994
-0.000582543
0.0114749
-0.000559576
0.0117244
-0.000519352
0.0119428
-0.000467393
0.0121302
-0.000412394
0.0122896
-0.000360848
0.0124248
-0.000315273
0.0125396
-0.000276184
0.0126376
-0.000243205
0.0127218
-0.000215612
0.0127948
-0.000192537
0.0128586
-0.000173198
0.0129149
-0.000156881
0.0129649
-0.000142959
0.0130096
-0.00013092
0.0130498
-0.000120371
0.0130861
-0.000111019
0.013119
-0.000102645
0.013149
-9.50873e-05
0.0131764
-8.8222e-05
0.0132014
-8.19552e-05
0.0132243
-7.62132e-05
0.0132454
-7.09371e-05
0.0132648
-6.60783e-05
0.0132827
-6.15958e-05
0.0132992
-5.74544e-05
0.0133144
-5.36233e-05
0.0133286
-5.0075e-05
0.0133417
-4.67854e-05
0.0133538
-4.37324e-05
0.0133651
-4.08965e-05
0.0133756
-3.826e-05
0.0133854
-3.58069e-05
0.0133945
-3.35226e-05
0.0134029
-3.1394e-05
0.0134109
-2.94091e-05
0.0134183
-2.75572e-05
0.0134252
-2.58282e-05
0.0134316
-2.42132e-05
0.0134377
-2.27039e-05
0.0134433
-2.12927e-05
0.0134486
-1.99727e-05
0.0134536
-1.87375e-05
0.0134582
-1.75813e-05
0.0134626
-1.64987e-05
0.0134666
-1.54846e-05
0.0134705
-1.45345e-05
0.0134741
-1.36441e-05
0.0134774
-1.28094e-05
0.0134806
-1.20269e-05
0.0134835
-1.12931e-05
0.0134863
-1.06048e-05
0.0134889
-9.95917e-06
0.0134914
-9.35341e-06
0.0134937
-8.785e-06
0.0134958
-8.25157e-06
0.0134979
-7.7509e-06
0.0134998
-7.28094e-06
0.0135016
-6.83976e-06
0.0135032
-6.42556e-06
0.0135048
-6.03665e-06
0.0135063
-5.67147e-06
0.0135077
-5.32854e-06
0.013509
-5.00648e-06
0.0135102
-4.70402e-06
0.0135114
-4.41993e-06
0.0135125
-4.15308e-06
0.0135135
-3.90241e-06
0.0135144
-3.66692e-06
0.0135153
-3.44568e-06
0.0135162
-3.23778e-06
0.013517
-3.0424e-06
0.0135177
-2.85874e-06
0.0135184
-2.68604e-06
0.0135191
-2.52359e-06
0.0135197
-2.37071e-06
0.0135203
-2.22672e-06
0.0135208
-2.09102e-06
0.0135214
-1.96298e-06
0.0135218
-1.84203e-06
0.0135223
-1.72762e-06
0.0135227
-1.6192e-06
0.0135231
-1.51628e-06
0.0135235
-1.41839e-06
0.0135238
-1.32508e-06
0.0135241
-1.23597e-06
0.0135244
-1.1507e-06
0.0135247
-1.06896e-06
0.013525
-9.90505e-07
0.0135252
-9.15128e-07
0.0135254
-8.4269e-07
0.0135256
-7.73103e-07
0.0135258
-7.06326e-07
0.0135259
-6.42367e-07
0.0135261
-5.81277e-07
0.0135262
-5.23133e-07
0.0135263
-4.68036e-07
0.0135264
-4.16094e-07
0.0135265
-3.67418e-07
0.0135266
-3.22107e-07
0.0135266
-2.80236e-07
0.0135267
-2.41852e-07
0.0135267
-2.06964e-07
0.0135268
-1.75543e-07
0.0135268
-1.47516e-07
0.0135268
-1.2277e-07
0.0135269
-1.01148e-07
0.0135269
-8.24636e-08
0.0135269
-6.6501e-08
0.0135269
-5.30238e-08
0.0135269
-4.17849e-08
0.0135269
-3.25309e-08
0.0135269
-2.50088e-08
0.0135269
-1.89752e-08
0.0135269
-1.42022e-08
0.0135269
-1.04802e-08
0.0135269
-7.62016e-09
0.0135269
-5.45525e-09
0.0135269
-3.84348e-09
0.0135269
-2.66352e-09
0.0135269
-1.81266e-09
0.0135269
-1.2081e-09
0.0135269
-7.87972e-10
0.0135269
-5.03604e-10
0.0135269
-3.15035e-10
0.0135269
-1.91555e-10
0.0135269
-1.11977e-10
0.0135269
-6.35862e-11
0.0135269
-3.5239e-11
0.0135269
-1.88347e-11
0.0135269
-8.69212e-12
0.0135269
-2.2262e-12
0.0135269
-1.67523e-13
0.0135269
1.20969e-13
0.0135269
3.37321e-13
0.0135269
2.38789e-13
0.0135269
1.66832e-12
0.0135269
2.58542e-12
0.0135269
1.27648e-12
0.0135269
1.06084e-12
0.0135269
2.97371e-13
0.0135269
-1.833e-12
0.0135269
-4.6774e-12
0.0135269
-6.54754e-12
0.0135269
-7.48908e-12
-1.11053e-11
0.0101711
-0.000326946
0.0104732
-0.000717559
0.0107747
-0.000847477
0.0110406
-0.000850383
0.0112685
-0.000810501
0.0114512
-0.000742277
0.0115865
-0.000654645
0.0116798
-0.000560625
0.0117389
-0.000471526
0.0117714
-0.000393394
0.011784
-0.000327847
0.0117821
-0.000274298
0.0117703
-0.000231338
0.0117519
-0.000197301
0.0117296
-0.000170143
0.0117048
-0.00014849
0.0116791
-0.000131101
0.011653
-0.000116939
0.0116273
-0.000105206
0.0116023
-9.53146e-05
0.0115781
-8.68355e-05
0.0115549
-7.94598e-05
0.0115328
-7.29644e-05
0.0115118
-6.71866e-05
0.0114918
-6.20065e-05
0.0114729
-5.73335e-05
0.0114551
-5.30979e-05
0.0114382
-4.92443e-05
0.0114224
-4.57272e-05
0.0114074
-4.25091e-05
0.0113934
-3.95577e-05
0.0113801
-3.68454e-05
0.0113677
-3.43482e-05
0.011356
-3.20451e-05
0.011345
-2.99175e-05
0.0113347
-2.79491e-05
0.011325
-2.61255e-05
0.011316
-2.44338e-05
0.0113074
-2.28627e-05
0.0112994
-2.14018e-05
0.0112919
-2.00421e-05
0.0112848
-1.87755e-05
0.0112782
-1.75945e-05
0.011272
-1.64925e-05
0.0112662
-1.54635e-05
0.0112607
-1.45021e-05
0.0112556
-1.36034e-05
0.0112508
-1.27627e-05
0.0112462
-1.1976e-05
0.011242
-1.12396e-05
0.011238
-1.05499e-05
0.0112343
-9.90376e-06
0.0112308
-9.29825e-06
0.0112275
-8.73065e-06
0.0112244
-8.19845e-06
0.0112215
-7.69933e-06
0.0112187
-7.23115e-06
0.0112162
-6.7919e-06
0.0112138
-6.37972e-06
0.0112115
-5.99289e-06
0.0112094
-5.62981e-06
0.0112074
-5.28896e-06
0.0112055
-4.96896e-06
0.0112038
-4.6685e-06
0.0112021
-4.38636e-06
0.0112006
-4.1214e-06
0.0111991
-3.87256e-06
0.0111977
-3.63883e-06
0.0111965
-3.4193e-06
0.0111953
-3.21308e-06
0.0111941
-3.01936e-06
0.0111931
-2.83736e-06
0.0111921
-2.66636e-06
0.0111911
-2.50568e-06
0.0111902
-2.35468e-06
0.0111894
-2.21274e-06
0.0111886
-2.0793e-06
0.0111879
-1.95379e-06
0.0111872
-1.8357e-06
0.0111866
-1.72452e-06
0.011186
-1.61977e-06
0.0111854
-1.52099e-06
0.0111848
-1.42772e-06
0.0111843
-1.33954e-06
0.0111839
-1.25604e-06
0.0111834
-1.17682e-06
0.011183
-1.10151e-06
0.0111826
-1.02978e-06
0.0111823
-9.61303e-07
0.0111819
-8.95799e-07
0.0111816
-8.3302e-07
0.0111813
-7.72759e-07
0.011181
-7.14851e-07
0.0111808
-6.59174e-07
0.0111805
-6.05645e-07
0.0111803
-5.54225e-07
0.0111801
-5.04913e-07
0.0111799
-4.5774e-07
0.0111798
-4.12765e-07
0.0111796
-3.70062e-07
0.0111795
-3.2972e-07
0.0111794
-2.91825e-07
0.0111792
-2.56461e-07
0.0111791
-2.23697e-07
0.0111791
-1.93579e-07
0.011179
-1.66125e-07
0.0111789
-1.41324e-07
0.0111789
-1.19133e-07
0.0111788
-9.94734e-08
0.0111788
-8.22381e-08
0.0111787
-6.72914e-08
0.0111787
-5.44749e-08
0.0111787
-4.36126e-08
0.0111787
-3.4517e-08
0.0111787
-2.69943e-08
0.0111786
-2.08509e-08
0.0111786
-1.59012e-08
0.0111786
-1.19667e-08
0.0111786
-8.88166e-09
0.0111786
-6.49752e-09
0.0111786
-4.68219e-09
0.0111786
-3.32209e-09
0.0111786
-2.31862e-09
0.0111786
-1.59027e-09
0.0111786
-1.07057e-09
0.0111786
-7.06114e-10
0.0111786
-4.5585e-10
0.0111786
-2.87768e-10
0.0111786
-1.76888e-10
0.0111786
-1.05372e-10
0.0111786
-6.09397e-11
0.0111786
-3.40716e-11
0.0111786
-1.90382e-11
0.0111786
-9.65389e-12
0.0111786
-3.90914e-12
0.0111786
-3.36699e-13
0.0111786
6.5353e-13
0.0111786
-2.09786e-13
0.0111786
-7.33147e-14
0.0111786
1.67698e-12
0.0111786
9.80664e-13
0.0111786
-2.76111e-13
0.0111786
1.19834e-12
0.0111786
-5.23827e-13
0.0111786
-1.86784e-12
0.0111786
-7.81579e-14
0.0111786
-5.29843e-12
0.0111786
-2.64297e-12
0.0111786
-4.71438e-12
-6.97719e-12
0.0102853
-0.000612233
0.010502
-0.000934222
0.010561
-0.000906489
0.0105323
-0.000821727
0.0104404
-0.000718563
0.0102934
-0.000595323
0.0101153
-0.000476506
0.00992525
-0.000370605
0.00973609
-0.00028236
0.00955532
-0.000212629
0.00938717
-0.000159696
0.00923369
-0.000120812
0.00909533
-9.29808e-05
0.00897142
-7.33914e-05
0.00886095
-5.96744e-05
0.0087625
-5.00354e-05
0.00867456
-4.31619e-05
0.00859574
-3.81188e-05
0.0085248
-3.4266e-05
0.00846067
-3.1185e-05
0.00840244
-2.86125e-05
0.00834937
-2.63873e-05
0.00830082
-2.44122e-05
0.00825626
-2.26289e-05
0.00821526
-2.10022e-05
0.00817743
-1.95098e-05
0.00814247
-1.81367e-05
0.0081101
-1.68716e-05
0.00808008
-1.57055e-05
0.0080522
-1.463e-05
0.00802628
-1.36376e-05
0.00800216
-1.27214e-05
0.00797968
-1.18747e-05
0.00795873
-1.10917e-05
0.00793918
-1.03666e-05
0.00792092
-9.69446e-06
0.00790387
-9.07073e-06
0.00788793
-8.49124e-06
0.00787302
-7.95228e-06
0.00785906
-7.45049e-06
0.007846
-6.98286e-06
0.00783378
-6.54669e-06
0.00782232
-6.13951e-06
0.00781159
-5.75914e-06
0.00780153
-5.40356e-06
0.0077921
-5.07096e-06
0.00778325
-4.75969e-06
0.00777496
-4.46825e-06
0.00776718
-4.19525e-06
0.00775988
-3.93943e-06
0.00775303
-3.69962e-06
0.0077466
-3.47476e-06
0.00774056
-3.26385e-06
0.0077349
-3.06599e-06
0.00772958
-2.88032e-06
0.00772459
-2.70606e-06
0.0077199
-2.54248e-06
0.0077155
-2.38891e-06
0.00771136
-2.24471e-06
0.00770748
-2.10929e-06
0.00770383
-1.98211e-06
0.0077004
-1.86265e-06
0.00769718
-1.75044e-06
0.00769416
-1.64503e-06
0.00769132
-1.546e-06
0.00768865
-1.45295e-06
0.00768615
-1.36553e-06
0.00768379
-1.28339e-06
0.00768158
-1.20621e-06
0.0076795
-1.13368e-06
0.00767754
-1.06553e-06
0.00767571
-1.00148e-06
0.00767398
-9.41294e-07
0.00767236
-8.84726e-07
0.00767084
-8.31556e-07
0.00766941
-7.81571e-07
0.00766806