/*--------------------------------*- C++ -*----------------------------------*\
  =========                 |
  \\      /  F ield         | OpenFOAM: The Open Source CFD Toolbox
   \\    /   O peration     | Website:  https://openfoam.org
    \\  /    A nd           | Version:  7
     \\/     M anipulation  |
\*---------------------------------------------------------------------------*/
FoamFile
{
    version     2.0;
    format      ascii;
    class       volVectorField;
    location    "10";
    object      U;
}
// * * * * * * * * * * * * * * * * * * * * * * * * * * * * * * * * * * * * * //

dimensions      [0 1 -1 0 0 0 0];

internalField   nonuniform List<vector> 
1500
(
(1.00046 -0.00322028 0)
(1.01239 -0.00877588 0)
(1.03419 -0.0123004 0)
(1.06242 -0.0138676 0)
(1.09278 -0.0142764 0)
(1.12254 -0.0140884 0)
(1.15063 -0.0135033 0)
(1.17669 -0.012618 0)
(1.20052 -0.0115724 0)
(1.22197 -0.0105039 0)
(1.2411 -0.00950146 0)
(1.25815 -0.00860423 0)
(1.2734 -0.00782026 0)
(1.28714 -0.00714313 0)
(1.2996 -0.00655967 0)
(1.31098 -0.00605508 0)
(1.32143 -0.00561531 0)
(1.33107 -0.00522782 0)
(1.34 -0.00488204 0)
(1.34829 -0.00456952 0)
(1.35602 -0.00428389 0)
(1.36322 -0.00402048 0)
(1.36995 -0.00377586 0)
(1.37624 -0.00354757 0)
(1.38212 -0.00333376 0)
(1.38762 -0.00313308 0)
(1.39277 -0.00294447 0)
(1.39759 -0.00276709 0)
(1.4021 -0.00260021 0)
(1.40633 -0.00244322 0)
(1.41029 -0.00229555 0)
(1.414 -0.00215666 0)
(1.41748 -0.00202606 0)
(1.42074 -0.00190327 0)
(1.4238 -0.00178787 0)
(1.42666 -0.0016794 0)
(1.42935 -0.00157749 0)
(1.43187 -0.00148173 0)
(1.43423 -0.00139177 0)
(1.43645 -0.00130727 0)
(1.43853 -0.00122789 0)
(1.44048 -0.00115334 0)
(1.44231 -0.00108331 0)
(1.44403 -0.00101754 0)
(1.44565 -0.000955778 0)
(1.44716 -0.00089777 0)
(1.44858 -0.000843292 0)
(1.44992 -0.00079213 0)
(1.45117 -0.000744083 0)
(1.45235 -0.00069896 0)
(1.45345 -0.000656584 0)
(1.45449 -0.000616786 0)
(1.45546 -0.00057941 0)
(1.45638 -0.000544309 0)
(1.45724 -0.000511342 0)
(1.45804 -0.00048038 0)
(1.4588 -0.000451301 0)
(1.45951 -0.000423989 0)
(1.46018 -0.000398336 0)
(1.46081 -0.000374242 0)
(1.4614 -0.000351611 0)
(1.46195 -0.000330354 0)
(1.46248 -0.000310386 0)
(1.46296 -0.000291631 0)
(1.46342 -0.000274012 0)
(1.46386 -0.000257462 0)
(1.46426 -0.000241915 0)
(1.46464 -0.00022731 0)
(1.465 -0.00021359 0)
(1.46534 -0.0002007 0)
(1.46565 -0.000188591 0)
(1.46595 -0.000177214 0)
(1.46623 -0.000166524 0)
(1.46649 -0.00015648 0)
(1.46674 -0.000147042 0)
(1.46697 -0.000138173 0)
(1.46719 -0.000129836 0)
(1.46739 -0.000121998 0)
(1.46759 -0.000114627 0)
(1.46777 -0.000107692 0)
(1.46794 -0.000101165 0)
(1.4681 -9.5018e-05 0)
(1.46825 -8.92236e-05 0)
(1.46839 -8.37566e-05 0)
(1.46852 -7.85922e-05 0)
(1.46864 -7.3707e-05 0)
(1.46876 -6.90785e-05 0)
(1.46887 -6.46856e-05 0)
(1.46897 -6.05085e-05 0)
(1.46906 -5.65288e-05 0)
(1.46915 -5.27295e-05 0)
(1.46923 -4.90961e-05 0)
(1.46931 -4.56155e-05 0)
(1.46938 -4.2277e-05 0)
(1.46945 -3.90719e-05 0)
(1.46951 -3.5994e-05 0)
(1.46956 -3.3039e-05 0)
(1.46961 -3.0205e-05 0)
(1.46966 -2.74917e-05 0)
(1.4697 -2.49009e-05 0)
(1.46974 -2.24353e-05 0)
(1.46977 -2.00986e-05 0)
(1.4698 -1.78948e-05 0)
(1.46983 -1.58284e-05 0)
(1.46985 -1.39031e-05 0)
(1.46987 -1.21218e-05 0)
(1.46989 -1.04865e-05 0)
(1.4699 -8.99763e-06 0)
(1.46992 -7.65393e-06 0)
(1.46993 -6.45249e-06 0)
(1.46993 -5.3887e-06 0)
(1.46994 -4.45649e-06 0)
(1.46995 -3.64827e-06 0)
(1.46995 -2.95526e-06 0)
(1.46996 -2.36781e-06 0)
(1.46996 -1.8757e-06 0)
(1.46996 -1.46855e-06 0)
(1.46996 -1.13594e-06 0)
(1.46997 -8.6763e-07 0)
(1.46997 -6.54117e-07 0)
(1.46997 -4.86571e-07 0)
(1.46997 -3.5694e-07 0)
(1.46997 -2.58068e-07 0)
(1.46997 -1.8382e-07 0)
(1.46997 -1.28965e-07 0)
(1.46997 -8.89623e-08 0)
(1.46997 -6.02761e-08 0)
(1.46997 -4.01344e-08 0)
(1.46997 -2.62435e-08 0)
(1.46997 -1.67826e-08 0)
(1.46997 -1.04412e-08 0)
(1.46997 -6.36006e-09 0)
(1.46997 -3.85108e-09 0)
(1.46997 -2.3568e-09 0)
(1.46997 -1.44435e-09 0)
(1.46997 -8.71403e-10 0)
(1.46997 -5.2855e-10 0)
(1.46997 -3.55536e-10 0)
(1.46997 -3.25956e-10 0)
(1.46997 -3.08703e-10 0)
(1.46997 -3.51906e-10 0)
(1.46997 -3.80919e-10 0)
(1.46997 -2.00812e-10 0)
(1.46997 -1.81414e-10 0)
(1.46997 -2.22774e-10 0)
(1.46997 -1.5689e-10 0)
(1.46997 -2.77304e-10 0)
(1.46997 -3.42874e-10 0)
(1.46997 -3.69812e-10 0)
(1.46997 -6.15137e-10 0)
(1.00056 -0.0107264 0)
(1.01593 -0.0280185 0)
(1.04218 -0.0380259 0)
(1.07349 -0.0421349 0)
(1.10484 -0.0430351 0)
(1.13403 -0.0421632 0)
(1.16045 -0.0400181 0)
(1.18392 -0.0369852 0)
(1.20434 -0.0335461 0)
(1.22177 -0.0301142 0)
(1.2365 -0.0269357 0)
(1.24891 -0.0241105 0)
(1.25943 -0.0216535 0)
(1.26843 -0.0195424 0)
(1.2762 -0.0177348 0)
(1.28297 -0.0161836 0)
(1.28892 -0.0148436 0)
(1.29418 -0.0136748 0)
(1.29888 -0.0126436 0)
(1.3031 -0.0117234 0)
(1.3069 -0.0108939 0)
(1.31035 -0.0101398 0)
(1.31348 -0.00944974 0)
(1.31634 -0.00881489 0)
(1.31895 -0.00822859 0)
(1.32134 -0.0076856 0)
(1.32354 -0.00718172 0)
(1.32556 -0.00671346 0)
(1.32742 -0.00627787 0)
(1.32913 -0.00587234 0)
(1.33072 -0.00549459 0)
(1.33218 -0.00514251 0)
(1.33354 -0.00481423 0)
(1.3348 -0.00450799 0)
(1.33597 -0.00422222 0)
(1.33706 -0.00395543 0)
(1.33807 -0.00370627 0)
(1.33901 -0.0034735 0)
(1.33989 -0.00325595 0)
(1.34071 -0.00305256 0)
(1.34147 -0.00286236 0)
(1.34219 -0.00268442 0)
(1.34285 -0.00251791 0)
(1.34348 -0.00236205 0)
(1.34406 -0.00221612 0)
(1.34461 -0.00207946 0)
(1.34512 -0.00195144 0)
(1.3456 -0.00183149 0)
(1.34605 -0.00171907 0)
(1.34647 -0.00161371 0)
(1.34686 -0.00151493 0)
(1.34723 -0.0014223 0)
(1.34758 -0.00133544 0)
(1.34791 -0.00125397 0)
(1.34821 -0.00117754 0)
(1.3485 -0.00110584 0)
(1.34877 -0.00103856 0)
(1.34902 -0.000975422 0)
(1.34926 -0.000916168 0)
(1.34948 -0.000860551 0)
(1.34969 -0.000808344 0)
(1.34989 -0.000759334 0)
(1.35007 -0.000713322 0)
(1.35024 -0.00067012 0)
(1.35041 -0.000629555 0)
(1.35056 -0.000591463 0)
(1.3507 -0.000555692 0)
(1.35084 -0.000522098 0)
(1.35096 -0.000490546 0)
(1.35108 -0.000460911 0)
(1.35119 -0.000433076 0)
(1.3513 -0.000406929 0)
(1.3514 -0.000382366 0)
(1.35149 -0.00035929 0)
(1.35158 -0.000337607 0)
(1.35166 -0.000317232 0)
(1.35174 -0.000298082 0)
(1.35181 -0.000280077 0)
(1.35188 -0.000263145 0)
(1.35194 -0.000247215 0)
(1.352 -0.000232217 0)
(1.35206 -0.000218089 0)
(1.35211 -0.000204766 0)
(1.35216 -0.00019219 0)
(1.35221 -0.000180303 0)
(1.35225 -0.00016905 0)
(1.35229 -0.000158379 0)
(1.35233 -0.00014824 0)
(1.35237 -0.000138587 0)
(1.3524 -0.000129379 0)
(1.35243 -0.000120577 0)
(1.35246 -0.000112149 0)
(1.35248 -0.000104065 0)
(1.35251 -9.63024e-05 0)
(1.35253 -8.88439e-05 0)
(1.35255 -8.16774e-05 0)
(1.35257 -7.47963e-05 0)
(1.35259 -6.81985e-05 0)
(1.3526 -6.18867e-05 0)
(1.35262 -5.58673e-05 0)
(1.35263 -5.01492e-05 0)
(1.35264 -4.47428e-05 0)
(1.35265 -3.9659e-05 0)
(1.35265 -3.49086e-05 0)
(1.35266 -3.05005e-05 0)
(1.35267 -2.64414e-05 0)
(1.35267 -2.27341e-05 0)
(1.35268 -1.93778e-05 0)
(1.35268 -1.63677e-05 0)
(1.35268 -1.36945e-05 0)
(1.35268 -1.13449e-05 0)
(1.35269 -9.30204e-06 0)
(1.35269 -7.54577e-06 0)
(1.35269 -6.05335e-06 0)
(1.35269 -4.80028e-06 0)
(1.35269 -3.7612e-06 0)
(1.35269 -2.91068e-06 0)
(1.35269 -2.22362e-06 0)
(1.35269 -1.67616e-06 0)
(1.35269 -1.2461e-06 0)
(1.35269 -9.13135e-07 0)
(1.35269 -6.59102e-07 0)
(1.35269 -4.68169e-07 0)
(1.35269 -3.27107e-07 0)
(1.35269 -2.24775e-07 0)
(1.35269 -1.51696e-07 0)
(1.35269 -1.00327e-07 0)
(1.35269 -6.49104e-08 0)
(1.35269 -4.10137e-08 0)
(1.35269 -2.51816e-08 0)
(1.35269 -1.5023e-08 0)
(1.35269 -8.77802e-09 0)
(1.35269 -4.99983e-09 0)
(1.35269 -2.76591e-09 0)
(1.35269 -1.46351e-09 0)
(1.35269 -7.05932e-10 0)
(1.35269 -3.60471e-10 0)
(1.35269 -3.45861e-10 0)
(1.35269 -4.05645e-10 0)
(1.35269 -4.17112e-10 0)
(1.35269 -3.19547e-10 0)
(1.35269 -2.60987e-10 0)
(1.35269 -2.05357e-10 0)
(1.35269 -1.91637e-10 0)
(1.35269 -2.38249e-10 0)
(1.35269 -2.14275e-10 0)
(1.35269 -1.68032e-10 0)
(1.35269 -5.85607e-10 0)
(1.35269 -7.99337e-10 0)
(1.35269 -1.12414e-09 0)
(1.00109 -0.0224478 0)
(1.02553 -0.0539474 0)
(1.05878 -0.0683459 0)
(1.09057 -0.0726597 0)
(1.11664 -0.0722635 0)
(1.13706 -0.0688935 0)
(1.1527 -0.0633367 0)
(1.16412 -0.0565643 0)
(1.1718 -0.0495611 0)
(1.17636 -0.0430024 0)
(1.1785 -0.0372 0)
(1.17887 -0.0322232 0)
(1.17803 -0.0280274 0)
(1.17639 -0.0245229 0)
(1.17426 -0.0216117 0)
(1.17184 -0.0191938 0)
(1.16927 -0.0171737 0)
(1.16665 -0.0154689 0)
(1.16404 -0.0140127 0)
(1.16148 -0.0127538 0)
(1.15901 -0.0116537 0)
(1.15664 -0.0106831 0)
(1.15437 -0.00981999 0)
(1.15221 -0.00904724 0)
(1.15016 -0.00835156 0)
(1.14822 -0.0077224 0)
(1.14638 -0.00715128 0)
(1.14465 -0.0066312 0)
(1.14301 -0.00615632 0)
(1.14147 -0.00572169 0)
(1.14002 -0.00532305 0)
(1.13866 -0.0049567 0)
(1.13738 -0.00461943 0)
(1.13617 -0.00430839 0)
(1.13504 -0.00402111 0)
(1.13398 -0.00375538 0)
(1.13298 -0.00350926 0)
(1.13204 -0.00328101 0)
(1.13116 -0.00306908 0)
(1.13033 -0.0028721 0)
(1.12956 -0.00268884 0)
(1.12883 -0.00251817 0)
(1.12815 -0.00235911 0)
(1.12751 -0.00221075 0)
(1.1269 -0.00207227 0)
(1.12634 -0.00194295 0)
(1.12581 -0.00182209 0)
(1.12531 -0.00170909 0)
(1.12485 -0.00160339 0)
(1.12441 -0.00150448 0)
(1.124 -0.00141187 0)
(1.12361 -0.00132515 0)
(1.12325 -0.0012439 0)
(1.12291 -0.00116776 0)
(1.12259 -0.0010964 0)
(1.12229 -0.00102949 0)
(1.12201 -0.000966747 0)
(1.12174 -0.000907895 0)
(1.12149 -0.000852685 0)
(1.12126 -0.000800882 0)
(1.12104 -0.00075227 0)
(1.12084 -0.000706646 0)
(1.12064 -0.000663821 0)
(1.12046 -0.000623618 0)
(1.12029 -0.000585874 0)
(1.12013 -0.000550434 0)
(1.11998 -0.000517156 0)
(1.11984 -0.000485905 0)
(1.11971 -0.000456555 0)
(1.11958 -0.000428989 0)
(1.11947 -0.000403096 0)
(1.11936 -0.000378774 0)
(1.11925 -0.000355924 0)
(1.11916 -0.000334456 0)
(1.11907 -0.000314284 0)
(1.11898 -0.000295325 0)
(1.1189 -0.000277503 0)
(1.11882 -0.000260744 0)
(1.11875 -0.000244977 0)
(1.11869 -0.000230137 0)
(1.11862 -0.000216158 0)
(1.11857 -0.000202979 0)
(1.11851 -0.00019054 0)
(1.11846 -0.000178785 0)
(1.11841 -0.000167658 0)
(1.11836 -0.000157107 0)
(1.11832 -0.000147083 0)
(1.11828 -0.000137538 0)
(1.11824 -0.000128432 0)
(1.11821 -0.000119725 0)
(1.11818 -0.000111385 0)
(1.11815 -0.000103381 0)
(1.11812 -9.56904e-05 0)
(1.11809 -8.82963e-05 0)
(1.11807 -8.11865e-05 0)
(1.11804 -7.43544e-05 0)
(1.11802 -6.77988e-05 0)
(1.118 -6.15228e-05 0)
(1.11798 -5.55336e-05 0)
(1.11797 -4.9841e-05 0)
(1.11795 -4.44563e-05 0)
(1.11794 -3.93915e-05 0)
(1.11793 -3.46581e-05 0)
(1.11792 -3.02658e-05 0)
(1.11791 -2.62217e-05 0)
(1.1179 -2.25294e-05 0)
(1.11789 -1.91884e-05 0)
(1.11789 -1.61938e-05 0)
(1.11788 -1.35366e-05 0)
(1.11788 -1.12031e-05 0)
(1.11788 -9.17616e-06 0)
(1.11787 -7.43535e-06 0)
(1.11787 -5.95769e-06 0)
(1.11787 -4.7185e-06 0)
(1.11787 -3.69225e-06 0)
(1.11786 -2.85331e-06 0)
(1.11786 -2.17662e-06 0)
(1.11786 -1.63819e-06 0)
(1.11786 -1.21586e-06 0)
(1.11786 -8.89413e-07 0)
(1.11786 -6.40749e-07 0)
(1.11786 -4.54306e-07 0)
(1.11786 -3.1683e-07 0)
(1.11786 -2.17197e-07 0)
(1.11786 -1.46184e-07 0)
(1.11786 -9.63986e-08 0)
(1.11786 -6.21334e-08 0)
(1.11786 -3.90409e-08 0)
(1.11786 -2.38553e-08 0)
(1.11786 -1.4138e-08 0)
(1.11786 -8.15454e-09 0)
(1.11786 -4.59144e-09 0)
(1.11786 -2.51049e-09 0)
(1.11786 -1.32782e-09 0)
(1.11786 -6.78104e-10 0)
(1.11786 -3.65672e-10 0)
(1.11786 -2.31705e-10 0)
(1.11786 -3.06409e-10 0)
(1.11786 -4.04767e-10 0)
(1.11786 -3.67896e-10 0)
(1.11786 -2.85729e-10 0)
(1.11786 -1.78904e-10 0)
(1.11786 -1.05156e-10 0)
(1.11786 -1.22112e-10 0)
(1.11786 -1.32281e-10 0)
(1.11786 -1.94275e-10 0)
(1.11786 -4.57073e-10 0)
(1.11786 -6.51069e-10 0)
(1.11786 -7.30575e-10 0)
(1.11786 -1.06585e-09 0)
(1.00086 -0.053703 0)
(1.0315 -0.0984002 0)
(1.05406 -0.106345 0)
(1.05901 -0.102383 0)
(1.05111 -0.0943727 0)
(1.03725 -0.0837419 0)
(1.02055 -0.0714304 0)
(1.00228 -0.0589075 0)
(0.983386 -0.047422 0)
(0.964772 -0.0376081 0)
(0.947155 -0.0296082 0)
(0.93094 -0.0233046 0)
(0.916272 -0.0184673 0)
(0.903124 -0.0148269 0)
(0.891397 -0.0121247 0)
(0.880955 -0.0101299 0)
(0.871649 -0.00864963 0)
(0.86333 -0.00753385 0)
(0.855863 -0.00667221 0)
(0.849129 -0.00598724 0)
(0.84303 -0.00542608 0)
(0.837481 -0.00495329 0)
(0.832413 -0.00454535 0)
(0.827769 -0.00418663 0)
(0.8235 -0.00386673 0)
(0.819567 -0.00357857 0)
(0.815935 -0.0033172 0)
(0.812574 -0.00307901 0)
(0.809459 -0.00286122 0)
(0.806569 -0.00266158 0)
(0.803883 -0.00247822 0)
(0.801384 -0.0023095 0)
(0.799057 -0.00215403 0)
(0.796889 -0.00201053 0)
(0.794866 -0.0018779 0)
(0.792978 -0.00175514 0)
(0.791215 -0.00164136 0)
(0.789566 -0.00153577 0)
(0.788026 -0.00143766 0)
(0.786584 -0.00134641 0)
(0.785235 -0.00126143 0)
(0.783972 -0.00118223 0)
(0.782789 -0.00110834 0)
(0.78168 -0.00103937 0)
(0.780642 -0.000974927 0)
(0.779668 -0.000914684 0)
(0.778755 -0.000858333 0)
(0.777899 -0.000805595 0)
(0.777096 -0.000756217 0)
(0.776343 -0.000709965 0)
(0.775636 -0.000666625 0)
(0.774973 -0.000626001 0)
(0.77435 -0.00058791 0)
(0.773765 -0.000552186 0)
(0.773217 -0.000518674 0)
(0.772702 -0.00048723 0)
(0.772218 -0.000457721 0)
(0.771764 -0.000430023 0)
(0.771337 -0.000404021 0)
(0.770937 -0.000379609 0)
(0.77056 -0.000356685 0)
(0.770207 -0.000335158 0)
(0.769875 -0.00031494 0)
(0.769563 -0.000295951 0)
(0.76927 -0.000278113 0)
(0.768995 -0.000261356 0)
(0.768737 -0.000245614 0)
(0.768494 -0.000230825 0)
(0.768265 -0.00021693 0)
(0.768051 -0.000203874 0)
(0.767849 -0.000191606 0)
(0.76766 -0.000180079 0)
(0.767482 -0.000169245 0)
(0.767315 -0.000159064 0)
(0.767158 -0.000149494 0)
(0.76701 -0.000140496 0)
(0.766872 -0.000132035 0)
(0.766741 -0.000124075 0)
(0.766619 -0.000116583 0)
(0.766504 -0.000109527 0)
(0.766396 -0.000102876 0)
(0.766295 -9.66012e-05 0)
(0.766199 -9.0673e-05 0)
(0.76611 -8.50644e-05 0)
(0.766026 -7.97488e-05 0)
(0.765948 -7.47014e-05 0)
(0.765874 -6.98985e-05 0)
(0.765805 -6.53184e-05 0)
(0.765741 -6.09415e-05 0)
(0.765681 -5.67503e-05 0)
(0.765626 -5.27296e-05 0)
(0.765574 -4.88669e-05 0)
(0.765526 -4.51528e-05 0)
(0.765482 -4.15803e-05 0)
(0.765441 -3.81456e-05 0)
(0.765403 -3.48472e-05 0)
(0.765369 -3.1686e-05 0)
(0.765338 -2.86652e-05 0)
(0.76531 -2.57891e-05 0)
(0.765285 -2.30632e-05 0)
(0.765263 -2.04934e-05 0)
(0.765243 -1.80856e-05 0)
(0.765225 -1.58451e-05 0)
(0.76521 -1.37758e-05 0)
(0.765196 -1.188e-05 0)
(0.765185 -1.01581e-05 0)
(0.765175 -8.6087e-06 0)
(0.765167 -7.22808e-06 0)
(0.76516 -6.01034e-06 0)
(0.765154 -4.94777e-06 0)
(0.765149 -4.03103e-06 0)
(0.765145 -3.24921e-06 0)
(0.765142 -2.59034e-06 0)
(0.765139 -2.04175e-06 0)
(0.765138 -1.59057e-06 0)
(0.765136 -1.2242e-06 0)
(0.765135 -9.30471e-07 0)
(0.765134 -6.98032e-07 0)
(0.765133 -5.16564e-07 0)
(0.765133 -3.7687e-07 0)
(0.765132 -2.70927e-07 0)
(0.765132 -1.91813e-07 0)
(0.765132 -1.33742e-07 0)
(0.765132 -9.17299e-08 0)
(0.765132 -6.1728e-08 0)
(0.765132 -4.0619e-08 0)
(0.765132 -2.6122e-08 0)
(0.765132 -1.64473e-08 0)
(0.765132 -1.01386e-08 0)
(0.765132 -6.12449e-09 0)
(0.765132 -3.61472e-09 0)
(0.765132 -2.09084e-09 0)
(0.765132 -1.20143e-09 0)
(0.765132 -6.23673e-10 0)
(0.765132 -2.92614e-10 0)
(0.765132 -2.09272e-10 0)
(0.765132 -2.34599e-10 0)
(0.765132 -2.65493e-10 0)
(0.765132 -2.73002e-10 0)
(0.765132 -1.91063e-10 0)
(0.765132 -9.80052e-11 0)
(0.765132 -2.52066e-11 0)
(0.765132 -7.37083e-11 0)
(0.765132 -2.02358e-10 0)
(0.765132 -8.95601e-11 0)
(0.765132 -9.38337e-11 0)
(0.765132 -3.83775e-10 0)
(0.765132 -3.49942e-10 0)
(0.765132 -5.11257e-10 0)
(0.765132 -6.08967e-10 0)
(0.926666 -0.0391663 0)
(0.882391 -0.0655941 0)
(0.809159 -0.0645405 0)
(0.718109 -0.0565022 0)
(0.634383 -0.0468943 0)
(0.567019 -0.0366737 0)
(0.514326 -0.0267511 0)
(0.473009 -0.0182833 0)
(0.440937 -0.0118414 0)
(0.416523 -0.00732497 0)
(0.398172 -0.00434968 0)
(0.38436 -0.00251117 0)
(0.373829 -0.00146162 0)
(0.365621 -0.000922022 0)
(0.359046 -0.0006816 0)
(0.353615 -0.000600423 0)
(0.348993 -0.000594209 0)
(0.344957 -0.000615384 0)
(0.341357 -0.000639166 0)
(0.338098 -0.000654467 0)
(0.335117 -0.000657948 0)
(0.332375 -0.000650179 0)
(0.32984 -0.000633346 0)
(0.327493 -0.000610013 0)
(0.325315 -0.000582535 0)
(0.323292 -0.000552825 0)
(0.321413 -0.000522316 0)
(0.319665 -0.000492009 0)
(0.318038 -0.000462557 0)
(0.316523 -0.000434349 0)
(0.315111 -0.000407592 0)
(0.313795 -0.000382369 0)
(0.312566 -0.000358683 0)
(0.311419 -0.000336491 0)
(0.310348 -0.000315723 0)
(0.309346 -0.000296297 0)
(0.308408 -0.000278126 0)
(0.307531 -0.000261124 0)
(0.30671 -0.000245211 0)
(0.30594 -0.00023031 0)
(0.305219 -0.00021635 0)
(0.304543 -0.000203265 0)
(0.30391 -0.000190996 0)
(0.303315 -0.000179487 0)
(0.302758 -0.000168687 0)
(0.302234 -0.000158551 0)
(0.301743 -0.000149033 0)
(0.301282 -0.000140095 0)
(0.300849 -0.000131699 0)
(0.300443 -0.000123811 0)
(0.300061 -0.0001164 0)
(0.299703 -0.000109435 0)
(0.299366 -0.000102888 0)
(0.29905 -9.67354e-05 0)
(0.298753 -9.09514e-05 0)
(0.298474 -8.55139e-05 0)
(0.298211 -8.04019e-05 0)
(0.297965 -7.55957e-05 0)
(0.297734 -7.10767e-05 0)
(0.297516 -6.68276e-05 0)
(0.297312 -6.28323e-05 0)
(0.29712 -5.90758e-05 0)
(0.296939 -5.55436e-05 0)
(0.296769 -5.22223e-05 0)
(0.29661 -4.90992e-05 0)
(0.29646 -4.61627e-05 0)
(0.296319 -4.34016e-05 0)
(0.296187 -4.08055e-05 0)
(0.296063 -3.83647e-05 0)
(0.295946 -3.60699e-05 0)
(0.295836 -3.39124e-05 0)
(0.295733 -3.18842e-05 0)
(0.295635 -2.99777e-05 0)
(0.295544 -2.81855e-05 0)
(0.295458 -2.65008e-05 0)
(0.295378 -2.49171e-05 0)
(0.295302 -2.34282e-05 0)
(0.295231 -2.20283e-05 0)
(0.295164 -2.07116e-05 0)
(0.295101 -1.94727e-05 0)
(0.295042 -1.83064e-05 0)
(0.294987 -1.72074e-05 0)
(0.294934 -1.61708e-05 0)
(0.294886 -1.51918e-05 0)
(0.29484 -1.42656e-05 0)
(0.294797 -1.33877e-05 0)
(0.294756 -1.25538e-05 0)
(0.294719 -1.17597e-05 0)
(0.294683 -1.10016e-05 0)
(0.29465 -1.02761e-05 0)
(0.29462 -9.58007e-06 0)
(0.294591 -8.91085e-06 0)
(0.294565 -8.26624e-06 0)
(0.294541 -7.64457e-06 0)
(0.294518 -7.04476e-06 0)
(0.294497 -6.46623e-06 0)
(0.294479 -5.90888e-06 0)
(0.294462 -5.37308e-06 0)
(0.294446 -4.85952e-06 0)
(0.294432 -4.36921e-06 0)
(0.29442 -3.90339e-06 0)
(0.294409 -3.46341e-06 0)
(0.294399 -3.05067e-06 0)
(0.29439 -2.66626e-06 0)
(0.294383 -2.3111e-06 0)
(0.294377 -1.98582e-06 0)
(0.294371 -1.69076e-06 0)
(0.294367 -1.42586e-06 0)
(0.294363 -1.19063e-06 0)
(0.294359 -9.84172e-07 0)
(0.294357 -8.05143e-07 0)
(0.294355 -6.51804e-07 0)
(0.294353 -5.2208e-07 0)
(0.294352 -4.1366e-07 0)
(0.29435 -3.24127e-07 0)
(0.29435 -2.51094e-07 0)
(0.294349 -1.92158e-07 0)
(0.294348 -1.45165e-07 0)
(0.294348 -1.08177e-07 0)
(0.294348 -7.94475e-08 0)
(0.294348 -5.75207e-08 0)
(0.294347 -4.10526e-08 0)
(0.294347 -2.88906e-08 0)
(0.294347 -1.99933e-08 0)
(0.294347 -1.35141e-08 0)
(0.294347 -8.88584e-09 0)
(0.294347 -5.72779e-09 0)
(0.294347 -3.65619e-09 0)
(0.294347 -2.3125e-09 0)
(0.294347 -1.43224e-09 0)
(0.294347 -8.41929e-10 0)
(0.294347 -4.78004e-10 0)
(0.294347 -2.85647e-10 0)
(0.294347 -1.42815e-10 0)
(0.294347 -5.95296e-11 0)
(0.294347 -4.20917e-11 0)
(0.294347 -1.0161e-10 0)
(0.294347 -1.0307e-10 0)
(0.294347 -9.07465e-11 0)
(0.294347 -6.80113e-11 0)
(0.294347 8.55037e-12 0)
(0.294347 1.70323e-11 0)
(0.294347 -4.17489e-11 0)
(0.294347 -4.14307e-11 0)
(0.294347 -2.79748e-11 0)
(0.294347 -6.97289e-11 0)
(0.294347 -1.87152e-11 0)
(0.294347 -8.62643e-11 0)
(0.294347 -2.13368e-10 0)
(0.294347 -2.10099e-10 0)
(1.00046 0.00322028 0)
(1.01239 0.00877588 0)
(1.03419 0.0123004 0)
(1.06242 0.0138676 0)
(1.09278 0.0142764 0)
(1.12254 0.0140884 0)
(1.15063 0.0135033 0)
(1.17669 0.012618 0)
(1.20052 0.0115724 0)
(1.22197 0.0105039 0)
(1.2411 0.00950146 0)
(1.25815 0.00860423 0)
(1.2734 0.00782026 0)
(1.28714 0.00714313 0)
(1.2996 0.00655967 0)
(1.31098 0.00605508 0)
(1.32143 0.00561531 0)
(1.33107 0.00522782 0)
(1.34 0.00488204 0)
(1.34829 0.00456952 0)
(1.35602 0.00428389 0)
(1.36322 0.00402048 0)
(1.36995 0.00377586 0)
(1.37624 0.00354757 0)
(1.38212 0.00333376 0)
(1.38762 0.00313308 0)
(1.39277 0.00294447 0)
(1.39759 0.00276709 0)
(1.4021 0.00260021 0)
(1.40633 0.00244322 0)
(1.41029 0.00229555 0)
(1.414 0.00215666 0)
(1.41748 0.00202606 0)
(1.42074 0.00190327 0)
(1.4238 0.00178787 0)
(1.42666 0.0016794 0)
(1.42935 0.00157749 0)
(1.43187 0.00148173 0)
(1.43423 0.00139177 0)
(1.43645 0.00130727 0)
(1.43853 0.00122789 0)
(1.44048 0.00115334 0)
(1.44231 0.00108331 0)
(1.44403 0.00101754 0)
(1.44565 0.000955777 0)
(1.44716 0.000897769 0)
(1.44858 0.000843292 0)
(1.44992 0.00079213 0)
(1.45117 0.000744083 0)
(1.45235 0.00069896 0)
(1.45345 0.000656583 0)
(1.45449 0.000616786 0)
(1.45546 0.000579411 0)
(1.45638 0.000544309 0)
(1.45724 0.000511342 0)
(1.45804 0.00048038 0)
(1.4588 0.000451301 0)
(1.45951 0.000423989 0)
(1.46018 0.000398336 0)
(1.46081 0.000374242 0)
(1.4614 0.000351611 0)
(1.46195 0.000330354 0)
(1.46248 0.000310387 0)
(1.46296 0.000291631 0)
(1.46342 0.000274013 0)
(1.46386 0.000257462 0)
(1.46426 0.000241915 0)
(1.46464 0.00022731 0)
(1.465 0.00021359 0)
(1.46534 0.0002007 0)
(1.46565 0.000188591 0)
(1.46595 0.000177214 0)
(1.46623 0.000166524 0)
(1.46649 0.00015648 0)
(1.46674 0.000147042 0)
(1.46697 0.000138172 0)
(1.46719 0.000129835 0)
(1.46739 0.000121998 0)
(1.46759 0.000114627 0)
(1.46777 0.000107692 0)
(1.46794 0.000101165 0)
(1.4681 9.50181e-05 0)
(1.46825 8.92237e-05 0)
(1.46839 8.37565e-05 0)
(1.46852 7.85921e-05 0)
(1.46864 7.37069e-05 0)
(1.46876 6.90785e-05 0)
(1.46887 6.46857e-05 0)
(1.46897 6.05084e-05 0)
(1.46906 5.65285e-05 0)
(1.46915 5.27294e-05 0)
(1.46923 4.90961e-05 0)
(1.46931 4.56155e-05 0)
(1.46938 4.22768e-05 0)
(1.46945 3.90716e-05 0)
(1.46951 3.59936e-05 0)
(1.46956 3.30387e-05 0)
(1.46961 3.02047e-05 0)
(1.46966 2.74915e-05 0)
(1.4697 2.49008e-05 0)
(1.46974 2.24353e-05 0)
(1.46977 2.00988e-05 0)
(1.4698 1.78951e-05 0)
(1.46983 1.58287e-05 0)
(1.46985 1.39034e-05 0)
(1.46987 1.21222e-05 0)
(1.46989 1.04869e-05 0)
(1.4699 8.99801e-06 0)
(1.46992 7.65421e-06 0)
(1.46993 6.4526e-06 0)
(1.46993 5.38865e-06 0)
(1.46994 4.45632e-06 0)
(1.46995 3.64805e-06 0)
(1.46995 2.95499e-06 0)
(1.46996 2.36747e-06 0)
(1.46996 1.87532e-06 0)
(1.46996 1.46816e-06 0)
(1.46996 1.13548e-06 0)
(1.46997 8.67158e-07 0)
(1.46997 6.5373e-07 0)
(1.46997 4.86264e-07 0)
(1.46997 3.56561e-07 0)
(1.46997 2.57537e-07 0)
(1.46997 1.83217e-07 0)
(1.46997 1.28428e-07 0)
(1.46997 8.85994e-08 0)
(1.46997 6.0024e-08 0)
(1.46997 3.98609e-08 0)
(1.46997 2.59148e-08 0)
(1.46997 1.6467e-08 0)
(1.46997 1.02876e-08 0)
(1.46997 6.33495e-09 0)
(1.46997 3.73915e-09 0)
(1.46997 2.04418e-09 0)
(1.46997 9.58339e-10 0)
(1.46997 3.92944e-10 0)
(1.46997 1.60162e-10 0)
(1.46997 7.77537e-11 0)
(1.46997 -7.14693e-11 0)
(1.46997 -1.5858e-10 0)
(1.46997 -3.07794e-10 0)
(1.46997 -3.44357e-10 0)
(1.46997 -2.0235e-10 0)
(1.46997 -1.48466e-10 0)
(1.46997 -1.3882e-10 0)
(1.46997 -1.54136e-10 0)
(1.46997 -1.98487e-10 0)
(1.46997 2.28588e-10 0)
(1.46997 4.11961e-10 0)
(1.46997 4.74885e-10 0)
(1.00056 0.0107264 0)
(1.01593 0.0280185 0)
(1.04218 0.0380259 0)
(1.07349 0.0421349 0)
(1.10484 0.0430351 0)
(1.13403 0.0421632 0)
(1.16045 0.0400181 0)
(1.18392 0.0369852 0)
(1.20434 0.0335461 0)
(1.22177 0.0301142 0)
(1.2365 0.0269357 0)
(1.24891 0.0241105 0)
(1.25943 0.0216535 0)
(1.26843 0.0195424 0)
(1.2762 0.0177348 0)
(1.28297 0.0161836 0)
(1.28892 0.0148436 0)
(1.29418 0.0136748 0)
(1.29888 0.0126436 0)
(1.3031 0.0117234 0)
(1.3069 0.0108939 0)
(1.31035 0.0101398 0)
(1.31348 0.00944974 0)
(1.31634 0.00881489 0)
(1.31895 0.00822859 0)
(1.32134 0.0076856 0)
(1.32354 0.00718172 0)
(1.32556 0.00671346 0)
(1.32742 0.00627787 0)
(1.32913 0.00587234 0)
(1.33072 0.00549459 0)
(1.33218 0.00514251 0)
(1.33354 0.00481423 0)
(1.3348 0.00450799 0)
(1.33597 0.00422222 0)
(1.33706 0.00395543 0)
(1.33807 0.00370627 0)
(1.33901 0.0034735 0)
(1.33989 0.00325595 0)
(1.34071 0.00305256 0)
(1.34147 0.00286236 0)
(1.34219 0.00268442 0)
(1.34285 0.00251791 0)
(1.34348 0.00236205 0)
(1.34406 0.00221612 0)
(1.34461 0.00207946 0)
(1.34512 0.00195144 0)
(1.3456 0.00183149 0)
(1.34605 0.00171907 0)
(1.34647 0.00161371 0)
(1.34686 0.00151493 0)
(1.34723 0.0014223 0)
(1.34758 0.00133544 0)
(1.34791 0.00125397 0)
(1.34821 0.00117754 0)
(1.3485 0.00110584 0)
(1.34877 0.00103856 0)
(1.34902 0.000975422 0)
(1.34926 0.000916168 0)
(1.34948 0.000860551 0)
(1.34969 0.000808344 0)
(1.34989 0.000759335 0)
(1.35007 0.000713322 0)
(1.35024 0.000670121 0)
(1.35041 0.000629556 0)
(1.35056 0.000591464 0)
(1.3507 0.000555692 0)
(1.35084 0.000522098 0)
(1.35096 0.000490546 0)
(1.35108 0.000460911 0)
(1.35119 0.000433076 0)
(1.3513 0.000406929 0)
(1.3514 0.000382366 0)
(1.35149 0.00035929 0)
(1.35158 0.000337607 0)
(1.35166 0.000317232 0)
(1.35174 0.000298082 0)
(1.35181 0.000280077 0)
(1.35188 0.000263145 0)
(1.35194 0.000247215 0)
(1.352 0.000232217 0)
(1.35206 0.000218089 0)
(1.35211 0.000204766 0)
(1.35216 0.00019219 0)
(1.35221 0.000180303 0)
(1.35225 0.00016905 0)
(1.35229 0.000158378 0)
(1.35233 0.000148239 0)
(1.35237 0.000138587 0)
(1.3524 0.000129379 0)
(1.35243 0.000120577 0)
(1.35246 0.000112149 0)
(1.35248 0.000104065 0)
(1.35251 9.63022e-05 0)
(1.35253 8.88436e-05 0)
(1.35255 8.16772e-05 0)
(1.35257 7.4796e-05 0)
(1.35259 6.81982e-05 0)
(1.3526 6.18865e-05 0)
(1.35262 5.58672e-05 0)
(1.35263 5.0149e-05 0)
(1.35264 4.47425e-05 0)
(1.35265 3.96588e-05 0)
(1.35265 3.49086e-05 0)
(1.35266 3.05008e-05 0)
(1.35267 2.64415e-05 0)
(1.35267 2.27341e-05 0)
(1.35268 1.93777e-05 0)
(1.35268 1.63675e-05 0)
(1.35268 1.36943e-05 0)
(1.35268 1.13447e-05 0)
(1.35269 9.30181e-06 0)
(1.35269 7.54548e-06 0)
(1.35269 6.05287e-06 0)
(1.35269 4.79972e-06 0)
(1.35269 3.76075e-06 0)
(1.35269 2.91033e-06 0)
(1.35269 2.22333e-06 0)
(1.35269 1.67582e-06 0)
(1.35269 1.24571e-06 0)
(1.35269 9.12633e-07 0)
(1.35269 6.58483e-07 0)
(1.35269 4.67682e-07 0)
(1.35269 3.26866e-07 0)
(1.35269 2.24558e-07 0)
(1.35269 1.51266e-07 0)
(1.35269 9.97691e-08 0)
(1.35269 6.44336e-08 0)
(1.35269 4.07187e-08 0)
(1.35269 2.50731e-08 0)
(1.35269 1.49602e-08 0)
(1.35269 8.68447e-09 0)
(1.35269 4.87852e-09 0)
(1.35269 2.59421e-09 0)
(1.35269 1.2246e-09 0)
(1.35269 4.64389e-10 0)
(1.35269 1.5116e-10 0)
(1.35269 -1.58337e-11 0)
(1.35269 -8.67222e-11 0)
(1.35269 -7.54434e-11 0)
(1.35269 -1.69742e-10 0)
(1.35269 -2.62168e-10 0)
(1.35269 -2.66476e-10 0)
(1.35269 -1.80954e-10 0)
(1.35269 -8.45422e-11 0)
(1.35269 -1.98832e-11 0)
(1.35269 2.8642e-10 0)
(1.35269 8.1329e-10 0)
(1.35269 8.05201e-10 0)
(1.35269 1.21587e-09 0)
(1.00109 0.0224478 0)
(1.02553 0.0539474 0)
(1.05878 0.0683459 0)
(1.09057 0.0726597 0)
(1.11664 0.0722635 0)
(1.13706 0.0688935 0)
(1.1527 0.0633367 0)
(1.16412 0.0565643 0)
(1.1718 0.0495611 0)
(1.17636 0.0430024 0)
(1.1785 0.0372 0)
(1.17887 0.0322232 0)
(1.17803 0.0280274 0)
(1.17639 0.0245229 0)
(1.17426 0.0216117 0)
(1.17184 0.0191938 0)
(1.16927 0.0171737 0)
(1.16665 0.0154689 0)
(1.16404 0.0140127 0)
(1.16148 0.0127538 0)
(1.15901 0.0116537 0)
(1.15664 0.0106831 0)
(1.15437 0.00981999 0)
(1.15221 0.00904724 0)
(1.15016 0.00835156 0)
(1.14822 0.0077224 0)
(1.14638 0.00715128 0)
(1.14465 0.0066312 0)
(1.14301 0.00615632 0)
(1.14147 0.00572169 0)
(1.14002 0.00532305 0)
(1.13866 0.0049567 0)
(1.13738 0.00461943 0)
(1.13617 0.00430839 0)
(1.13504 0.00402111 0)
(1.13398 0.00375538 0)
(1.13298 0.00350926 0)
(1.13204 0.00328101 0)
(1.13116 0.00306908 0)
(1.13033 0.0028721 0)
(1.12956 0.00268884 0)
(1.12883 0.00251817 0)
(1.12815 0.00235911 0)
(1.12751 0.00221075 0)
(1.1269 0.00207227 0)
(1.12634 0.00194295 0)
(1.12581 0.00182209 0)
(1.12531 0.00170909 0)
(1.12485 0.00160339 0)
(1.12441 0.00150448 0)
(1.124 0.00141187 0)
(1.12361 0.00132515 0)
(1.12325 0.0012439 0)
(1.12291 0.00116776 0)
(1.12259 0.0010964 0)
(1.12229 0.00102949 0)
(1.12201 0.000966747 0)
(1.12174 0.000907895 0)
(1.12149 0.000852685 0)
(1.12126 0.000800883 0)
(1.12104 0.000752271 0)
(1.12084 0.000706646 0)
(1.12064 0.000663821 0)
(1.12046 0.000623619 0)
(1.12029 0.000585874 0)
(1.12013 0.000550434 0)
(1.11998 0.000517156 0)
(1.11984 0.000485905 0)
(1.11971 0.000456555 0)
(1.11958 0.000428989 0)
(1.11947 0.000403096 0)
(1.11936 0.000378774 0)
(1.11925 0.000355924 0)
(1.11916 0.000334456 0)
(1.11907 0.000314284 0)
(1.11898 0.000295325 0)
(1.1189 0.000277503 0)
(1.11882 0.000260743 0)
(1.11875 0.000244977 0)
(1.11869 0.000230137 0)
(1.11862 0.000216158 0)
(1.11857 0.000202979 0)
(1.11851 0.00019054 0)
(1.11846 0.000178785 0)
(1.11841 0.000167658 0)
(1.11836 0.000157107 0)
(1.11832 0.000147082 0)
(1.11828 0.000137538 0)
(1.11824 0.000128432 0)
(1.11821 0.000119726 0)
(1.11818 0.000111385 0)
(1.11815 0.000103381 0)
(1.11812 9.56906e-05 0)
(1.11809 8.82966e-05 0)
(1.11807 8.11867e-05 0)
(1.11804 7.43545e-05 0)
(1.11802 6.77989e-05 0)
(1.118 6.1523e-05 0)
(1.11798 5.55338e-05 0)
(1.11797 4.98412e-05 0)
(1.11795 4.44565e-05 0)
(1.11794 3.93917e-05 0)
(1.11793 3.46583e-05 0)
(1.11792 3.02661e-05 0)
(1.11791 2.6222e-05 0)
(1.1179 2.25296e-05 0)
(1.11789 1.91885e-05 0)
(1.11789 1.61938e-05 0)
(1.11788 1.35364e-05 0)
(1.11788 1.12029e-05 0)
(1.11788 9.17604e-06 0)
(1.11787 7.43522e-06 0)
(1.11787 5.95748e-06 0)
(1.11787 4.7182e-06 0)
(1.11787 3.69193e-06 0)
(1.11786 2.853e-06 0)
(1.11786 2.17634e-06 0)
(1.11786 1.63797e-06 0)
(1.11786 1.2156e-06 0)
(1.11786 8.89044e-07 0)
(1.11786 6.40343e-07 0)
(1.11786 4.53937e-07 0)
(1.11786 3.16518e-07 0)
(1.11786 2.16891e-07 0)
(1.11786 1.45807e-07 0)
(1.11786 9.59216e-08 0)
(1.11786 6.16965e-08 0)
(1.11786 3.88021e-08 0)
(1.11786 2.38092e-08 0)
(1.11786 1.41673e-08 0)
(1.11786 8.10437e-09 0)
(1.11786 4.47303e-09 0)
(1.11786 2.41345e-09 0)
(1.11786 1.22565e-09 0)
(1.11786 5.0482e-10 0)
(1.11786 3.72113e-11 0)
(1.11786 -9.63443e-11 0)
(1.11786 -5.79243e-11 0)
(1.11786 -1.50793e-11 0)
(1.11786 -1.14215e-10 0)
(1.11786 -1.69652e-10 0)
(1.11786 -1.13352e-10 0)
(1.11786 -1.40027e-10 0)
(1.11786 -2.23029e-11 0)
(1.11786 1.39553e-10 0)
(1.11786 5.59965e-11 0)
(1.11786 4.81316e-10 0)
(1.11786 5.53363e-10 0)
(1.11786 6.47753e-10 0)
(1.11786 9.69026e-10 0)
(1.00086 0.053703 0)
(1.0315 0.0984002 0)
(1.05406 0.106345 0)
(1.05901 0.102383 0)
(1.05111 0.0943727 0)
(1.03725 0.0837419 0)
(1.02055 0.0714304 0)
(1.00228 0.0589075 0)
(0.983386 0.047422 0)