/*--------------------------------*- C++ -*----------------------------------*\
  =========                 |
  \\      /  F ield         | OpenFOAM: The Open Source CFD Toolbox
   \\    /   O peration     | Website:  https://openfoam.org
    \\  /    A nd           | Version:  7
     \\/     M anipulation  |
\*---------------------------------------------------------------------------*/
FoamFile
{
    version     2.0;
    format      ascii;
    class       volScalarField;
    location    "7";
    object      p;
}
// * * * * * * * * * * * * * * * * * * * * * * * * * * * * * * * * * * * * * //

dimensions      [0 2 -2 0 0 0 0];

internalField   nonuniform List<scalar> 
48000
(
1.90119
1.90122
1.90119
1.9011
1.90095
1.90074
1.90048
1.90015
1.89976
1.89931
1.8988
1.89824
1.89761
1.89692
1.89617
1.89536
1.89449
1.89356
1.89258
1.89153
1.89043
1.88927
1.88806
1.88679
1.88547
1.88409
1.88266
1.88119
1.87966
1.87808
1.87646
1.87479
1.87307
1.87131
1.86951
1.86767
1.86579
1.86387
1.86191
1.85992
1.85789
1.85583
1.85374
1.85162
1.84947
1.8473
1.8451
1.84287
1.84062
1.83835
1.83605
1.83374
1.83141
1.82906
1.82669
1.82431
1.82192
1.81951
1.8171
1.81467
1.81223
1.80978
1.80733
1.80486
1.80239
1.79992
1.79744
1.79496
1.79247
1.78998
1.78749
1.785
1.78251
1.78001
1.77752
1.77503
1.77254
1.77005
1.76756
1.76508
1.7626
1.76012
1.75765
1.75518
1.75271
1.75025
1.7478
1.74535
1.7429
1.74046
1.73803
1.7356
1.73318
1.73076
1.72835
1.72594
1.72355
1.72115
1.71877
1.71639
1.71402
1.71165
1.70929
1.70694
1.7046
1.70226
1.69992
1.6976
1.69528
1.69296
1.69065
1.68835
1.68606
1.68377
1.68149
1.67921
1.67694
1.67467
1.67241
1.67016
1.66791
1.66567
1.66343
1.66119
1.65897
1.65674
1.65452
1.65231
1.6501
1.6479
1.64569
1.6435
1.64131
1.63912
1.63693
1.63475
1.63257
1.6304
1.62823
1.62606
1.6239
1.62174
1.61958
1.61742
1.61527
1.61312
1.61097
1.60882
1.60668
1.60454
1.6024
1.60026
1.59813
1.59599
1.59386
1.59173
1.5896
1.58747
1.58534
1.58321
1.58109
1.57896
1.57684
1.57472
1.57259
1.57047
1.56835
1.56623
1.56411
1.56198
1.55986
1.55774
1.55562
1.5535
1.55138
1.54926
1.54714
1.54502
1.54289
1.54077
1.53865
1.53652
1.5344
1.53227
1.53014
1.52802
1.52589
1.52376
1.52163
1.5195
1.51736
1.51523
1.51309
1.51096
1.50882
1.50668
1.50454
1.5024
1.50025
1.49811
1.49596
1.49381
1.49166
1.48951
1.48735
1.4852
1.48304
1.48088
1.47871
1.47655
1.47438
1.47221
1.47004
1.46787
1.46569
1.46352
1.46134
1.45915
1.45697
1.45478
1.45259
1.4504
1.4482
1.44601
1.44381
1.4416
1.4394
1.43719
1.43498
1.43276
1.43055
1.42833
1.4261
1.42388
1.42165
1.41942
1.41718
1.41495
1.4127
1.41046
1.40821
1.40596
1.40371
1.40145
1.39919
1.39692
1.39466
1.39239
1.39011
1.38783
1.38555
1.38326
1.38098
1.37868
1.37639
1.37409
1.37178
1.36947
1.36716
1.36485
1.36253
1.3602
1.35787
1.35554
1.35321
1.35087
1.34852
1.34617
1.34382
1.34146
1.3391
1.33674
1.33437
1.33199
1.32961
1.32723
1.32484
1.32245
1.32005
1.31765
1.31525
1.31283
1.31042
1.308
1.30557
1.30314
1.3007
1.29826
1.29582
1.29337
1.29091
1.28845
1.28598
1.28351
1.28104
1.27855
1.27607
1.27357
1.27107
1.26857
1.26606
1.26355
1.26103
1.2585
1.25597
1.25343
1.25089
1.24834
1.24578
1.24322
1.24065
1.23808
1.2355
1.23291
1.23032
1.22772
1.22512
1.22251
1.21989
1.21727
1.21464
1.212
1.20936
1.20671
1.20405
1.20139
1.19872
1.19604
1.19336
1.19067
1.18797
1.18527
1.18256
1.17984
1.17711
1.17438
1.17164
1.16889
1.16614
1.16338
1.16061
1.15783
1.15504
1.15225
1.14945
1.14664
1.14383
1.141
1.13817
1.13533
1.13249
1.12963
1.12677
1.12389
1.12101
1.11812
1.11523
1.11232
1.10941
1.10649
1.10356
1.10062
1.09767
1.09471
1.09174
1.08877
1.08579
1.08279
1.07979
1.07678
1.07376
1.07073
1.06769
1.06465
1.06159
1.05852
1.05545
1.05236
1.04926
1.04616
1.04305
1.03992
1.03679
1.03364
1.03049
1.02732
1.02415
1.02096
1.01777
1.01456
1.01135
1.00812
1.00489
1.00164
0.998382
0.995114
0.991835
0.988546
0.985246
0.981935
0.978613
0.97528
0.971936
0.968581
0.965214
0.961837
0.958448
0.955048
0.951637
0.948214
0.94478
0.941334
0.937877
0.934407
0.930927
0.927434
0.92393
0.920413
0.916885
0.913345
0.909792
0.906228
0.902651
0.899062
0.895461
0.891847
0.888221
0.884582
0.880931
0.877267
0.873591
0.869901
0.866199
0.862483
0.858755
0.855014
0.851259
0.847491
0.84371
0.839916
0.836107
0.832286
0.82845
0.824601
0.820738
0.816862
0.812971
0.809066
0.805147
0.801213
0.797265
0.793303
0.789326
0.785335
0.781329
0.777308
0.773272
0.769221
0.765155
0.761073
0.756977
0.752865
0.748737
0.744594
0.740436
0.736262
0.732071
0.727865
0.723643
0.719405
0.715151
0.71088
0.706594
0.70229
0.697971
0.693635
0.689282
0.684912
0.680526
0.676123
0.671703
0.667266
0.662812
0.65834
0.653852
0.649346
0.644823
0.640283
0.635725
0.631149
0.626556
0.621945
0.617316
0.61267
0.608006
0.603323
0.598623
0.593905
0.589168
0.584413
0.57964
0.574849
0.570039
0.56521
0.560363
0.555497
0.550613
0.545709
0.540787
0.535846
0.530886
0.525907
0.520908
0.51589
0.510853
0.505797
0.500721
0.495625
0.49051
0.485375
0.480221
0.475046
0.469852
0.464638
0.459403
0.454149
0.448874
0.443579
0.438263
0.432927
0.42757
0.422193
0.416795
0.411377
0.405937
0.400476
0.394995
0.389492
0.383968
0.378423
0.372857
0.367269
0.361659
0.356028
0.350375
0.344701
0.339005
0.333286
0.327546
0.321783
0.315999
0.310192
0.304363
0.298511
0.292637
0.28674
0.28082
0.274878
0.268912
0.262924
0.256913
0.250878
0.244821
0.238739
0.232635
0.226507
0.220355
0.21418
0.207981
0.201758
0.195511
0.18924
0.182945
0.176626
0.170282
0.163914
0.157521
0.151104
0.144662
0.138195
0.131703
0.125187
0.118645
0.112078
0.105485
0.0988677
0.0922246
0.0855558
0.0788613
0.0721411
0.0653949
0.0586228
0.0518246
0.0450003
0.0381496
0.0312726
0.024369
0.0174389
0.0104821
0.00349852
1.90203
1.90206
1.90204
1.90195
1.90179
1.90158
1.90131
1.90097
1.90058
1.90012
1.8996
1.89902
1.89838
1.89767
1.89691
1.89608
1.8952
1.89425
1.89325
1.89218
1.89106
1.88988
1.88865
1.88736
1.88601
1.88461
1.88316
1.88166
1.88011
1.87851
1.87686
1.87517
1.87343
1.87165
1.86982
1.86796
1.86606
1.86411
1.86214
1.86012
1.85808
1.856
1.85389
1.85175
1.84958
1.84738
1.84516
1.84292
1.84065
1.83837
1.83606
1.83373
1.83139
1.82902
1.82665
1.82426
1.82185
1.81943
1.81701
1.81457
1.81212
1.80966
1.8072
1.80473
1.80225
1.79977
1.79729
1.7948
1.79231
1.78982
1.78732
1.78482
1.78233
1.77983
1.77734
1.77484
1.77235
1.76986
1.76737
1.76489
1.76241
1.75993
1.75745
1.75499
1.75252
1.75006
1.7476
1.74515
1.74271
1.74027
1.73784
1.73541
1.73299
1.73057
1.72816
1.72576
1.72336
1.72097
1.71859
1.71621
1.71384
1.71148
1.70912
1.70677
1.70443
1.70209
1.69976
1.69744
1.69512
1.69281
1.6905
1.6882
1.68591
1.68362
1.68134
1.67907
1.6768
1.67453
1.67228
1.67002
1.66778
1.66554
1.6633
1.66107
1.65884
1.65662
1.65441
1.65219
1.64999
1.64778
1.64558
1.64339
1.6412
1.63901
1.63683
1.63465
1.63247
1.6303
1.62813
1.62597
1.62381
1.62165
1.61949
1.61733
1.61518
1.61303
1.61089
1.60874
1.6066
1.60446
1.60232
1.60019
1.59805
1.59592
1.59379
1.59166
1.58953
1.5874
1.58527
1.58315
1.58102
1.5789
1.57678
1.57465
1.57253
1.57041
1.56829
1.56617
1.56405
1.56193
1.55981
1.55769
1.55557
1.55345
1.55133
1.54921
1.54709
1.54497
1.54285
1.54072
1.5386
1.53648
1.53435
1.53223
1.5301
1.52798
1.52585
1.52372
1.52159
1.51946
1.51733
1.51519
1.51306
1.51092
1.50878
1.50664
1.5045
1.50236
1.50022
1.49807
1.49593
1.49378
1.49163
1.48948
1.48732
1.48517
1.48301
1.48085
1.47869
1.47652
1.47436
1.47219
1.47002
1.46784
1.46567
1.46349
1.46131
1.45913
1.45695
1.45476
1.45257
1.45038
1.44818
1.44598
1.44378
1.44158
1.43938
1.43717
1.43496
1.43274
1.43053
1.42831
1.42609
1.42386
1.42163
1.4194
1.41717
1.41493
1.41269
1.41044
1.40819
1.40594
1.40369
1.40143
1.39917
1.39691
1.39464
1.39237
1.3901
1.38782
1.38554
1.38325
1.38096
1.37867
1.37637
1.37407
1.37177
1.36946
1.36715
1.36483
1.36251
1.36019
1.35786
1.35553
1.3532
1.35086
1.34851
1.34616
1.34381
1.34145
1.33909
1.33673
1.33436
1.33198
1.3296
1.32722
1.32483
1.32244
1.32004
1.31764
1.31524
1.31282
1.31041
1.30799
1.30556
1.30313
1.3007
1.29826
1.29581
1.29336
1.2909
1.28844
1.28598
1.2835
1.28103
1.27855
1.27606
1.27357
1.27107
1.26856
1.26605
1.26354
1.26102
1.25849
1.25596
1.25342
1.25088
1.24833
1.24578
1.24321
1.24065
1.23807
1.23549
1.23291
1.23032
1.22772
1.22511
1.2225
1.21989
1.21726
1.21463
1.212
1.20935
1.20671
1.20405
1.20139
1.19872
1.19604
1.19336
1.19067
1.18797
1.18527
1.18255
1.17984
1.17711
1.17438
1.17164
1.16889
1.16613
1.16337
1.1606
1.15783
1.15504
1.15225
1.14945
1.14664
1.14382
1.141
1.13817
1.13533
1.13248
1.12963
1.12676
1.12389
1.12101
1.11812
1.11523
1.11232
1.10941
1.10648
1.10355
1.10061
1.09767
1.09471
1.09174
1.08877
1.08578
1.08279
1.07979
1.07678
1.07376
1.07073
1.06769
1.06464
1.06159
1.05852
1.05544
1.05236
1.04926
1.04616
1.04304
1.03992
1.03678
1.03364
1.03049
1.02732
1.02415
1.02096
1.01777
1.01456
1.01135
1.00812
1.00488
1.00164
0.998381
0.995113
0.991834
0.988545
0.985244
0.981933
0.978611
0.975278
0.971934
0.968579
0.965213
0.961836
0.958447
0.955047
0.951636
0.948213
0.944779
0.941333
0.937876
0.934406
0.930926
0.927433
0.923929
0.920412
0.916884
0.913344
0.909792
0.906227
0.90265
0.899061
0.89546
0.891846
0.88822
0.884582
0.88093
0.877266
0.87359
0.8699
0.866198
0.862483
0.858754
0.855013
0.851259
0.847491
0.84371
0.839915
0.836107
0.832285
0.82845
0.824601
0.820738
0.816861
0.81297
0.809065
0.805146
0.801213
0.797265
0.793303
0.789326
0.785334
0.781328
0.777307
0.773271
0.76922
0.765154
0.761073
0.756977
0.752865
0.748737
0.744594
0.740436
0.736261
0.732071
0.727865
0.723643
0.719405
0.715151
0.71088
0.706594
0.70229
0.697971
0.693635
0.689282
0.684912
0.680526
0.676123
0.671703
0.667266
0.662812
0.65834
0.653852
0.649346
0.644823
0.640283
0.635725
0.631149
0.626556
0.621945
0.617316
0.61267
0.608006
0.603323
0.598623
0.593905
0.589168
0.584413
0.57964
0.574849
0.570039
0.56521
0.560363
0.555497
0.550613
0.545709
0.540787
0.535846
0.530886
0.525907
0.520908
0.51589
0.510853
0.505797
0.500721
0.495625
0.49051
0.485375
0.480221
0.475046
0.469852
0.464638
0.459403
0.454149
0.448874
0.443579
0.438263
0.432927
0.42757
0.422193
0.416795
0.411377
0.405937
0.400476
0.394995
0.389492
0.383968
0.378423
0.372857
0.367269
0.361659
0.356028
0.350375
0.344701
0.339005
0.333286
0.327546
0.321783
0.315999
0.310192
0.304363
0.298511
0.292637
0.28674
0.28082
0.274878
0.268912
0.262924
0.256913
0.250878
0.244821
0.238739
0.232635
0.226507
0.220355
0.21418
0.207981
0.201758
0.195511
0.18924
0.182945
0.176626
0.170282
0.163914
0.157521
0.151104
0.144662
0.138195
0.131703
0.125187
0.118645
0.112078
0.105485
0.0988677
0.0922245
0.0855558
0.0788613
0.0721411
0.0653949
0.0586228
0.0518246
0.0450003
0.0381496
0.0312726
0.024369
0.0174389
0.0104821
0.00349852
1.90364
1.90367
1.90365
1.90356
1.9034
1.90317
1.90289
1.90254
1.90213
1.90165
1.90111
1.90051
1.89984
1.89911
1.89831
1.89746
1.89654
1.89556
1.89452
1.89342
1.89226
1.89104
1.88976
1.88843
1.88704
1.8856
1.8841
1.88256
1.88096
1.87932
1.87762
1.87589
1.8741
1.87228
1.87041
1.8685
1.86655
1.86457
1.86255
1.8605
1.85841
1.85629
1.85415
1.85197
1.84977
1.84754
1.84529
1.84301
1.84071
1.8384
1.83606
1.83371
1.83134
1.82895
1.82655
1.82414
1.82171
1.81927
1.81683
1.81437
1.81191
1.80944
1.80696
1.80447
1.80199
1.79949
1.797
1.7945
1.792
1.7895
1.787
1.78449
1.78199
1.77949
1.77699
1.77449
1.772
1.7695
1.76701
1.76453
1.76204
1.75956
1.75709
1.75462
1.75215
1.74969
1.74724
1.74479
1.74235
1.73991
1.73748
1.73505
1.73263
1.73022
1.72782
1.72542
1.72302
1.72064
1.71826
1.71588
1.71352
1.71116
1.7088
1.70646
1.70412
1.70178
1.69946
1.69714
1.69482
1.69251
1.69021
1.68792
1.68563
1.68335
1.68107
1.6788
1.67654
1.67428
1.67202
1.66977
1.66753
1.66529
1.66306
1.66083
1.65861
1.6564
1.65418
1.65197
1.64977
1.64757
1.64538
1.64319
1.641
1.63882
1.63664
1.63446
1.63229
1.63012
1.62795
1.62579
1.62363
1.62148
1.61932
1.61717
1.61502
1.61288
1.61073
1.60859
1.60645
1.60431
1.60218
1.60004
1.59791
1.59578
1.59365
1.59153
1.5894
1.58727
1.58515
1.58303
1.5809
1.57878
1.57666
1.57454
1.57242
1.5703
1.56818
1.56606
1.56395
1.56183
1.55971
1.55759
1.55547
1.55336
1.55124
1.54912
1.547
1.54488
1.54276
1.54064
1.53852
1.53639
1.53427
1.53215
1.53002
1.5279
1.52577
1.52364
1.52151
1.51939
1.51725
1.51512
1.51299
1.51085
1.50872
1.50658
1.50444
1.5023
1.50016
1.49801
1.49587
1.49372
1.49157
1.48942
1.48726
1.48511
1.48295
1.48079
1.47863
1.47647
1.4743
1.47214
1.46997
1.46779
1.46562
1.46344
1.46126
1.45908
1.4569
1.45471
1.45252
1.45033
1.44814
1.44594
1.44374
1.44154
1.43934
1.43713
1.43492
1.43271
1.43049
1.42827
1.42605
1.42382
1.4216
1.41936
1.41713
1.41489
1.41265
1.41041
1.40816
1.40591
1.40366
1.4014
1.39914
1.39688
1.39461
1.39234
1.39007
1.38779
1.38551
1.38322
1.38093
1.37864
1.37635
1.37405
1.37174
1.36944
1.36712
1.36481
1.36249
1.36017
1.35784
1.35551
1.35317
1.35083
1.34849
1.34614
1.34379
1.34143
1.33907
1.33671
1.33434
1.33196
1.32959
1.3272
1.32481
1.32242
1.32003
1.31762
1.31522
1.31281
1.31039
1.30797
1.30555
1.30312
1.30068
1.29824
1.29579
1.29334
1.29089
1.28843
1.28596
1.28349
1.28101
1.27853
1.27605
1.27355
1.27105
1.26855
1.26604
1.26353
1.26101
1.25848
1.25595
1.25341
1.25087
1.24832
1.24576
1.2432
1.24064
1.23806
1.23548
1.2329
1.23031
1.22771
1.2251
1.22249
1.21988
1.21725
1.21462
1.21199
1.20935
1.2067
1.20404
1.20138
1.19871
1.19603
1.19335
1.19066
1.18796
1.18526
1.18255
1.17983
1.1771
1.17437
1.17163
1.16888
1.16613
1.16337
1.1606
1.15782
1.15503
1.15224
1.14944
1.14663
1.14382
1.14099
1.13816
1.13532
1.13248
1.12962
1.12676
1.12389
1.12101
1.11812
1.11522
1.11231
1.1094
1.10648
1.10355
1.10061
1.09766
1.0947
1.09174
1.08876
1.08578
1.08279
1.07979
1.07678
1.07376
1.07073
1.06769
1.06464
1.06158
1.05852
1.05544
1.05235
1.04926
1.04615
1.04304
1.03992
1.03678
1.03364
1.03048
1.02732
1.02414
1.02096
1.01776
1.01456
1.01134
1.00812
1.00488
1.00164
0.998378
0.99511
0.991832
0.988542
0.985242
0.981931
0.978609
0.975276
0.971932
0.968577
0.965211
0.961834
0.958445
0.955045
0.951634
0.948211
0.944777
0.941331
0.937874
0.934405
0.930924
0.927431
0.923927
0.920411
0.916882
0.913342
0.90979
0.906225
0.902649
0.89906
0.895459
0.891845
0.888219
0.88458
0.880929
0.877265
0.873589
0.869899
0.866197
0.862482
0.858753
0.855012
0.851257
0.84749
0.843708
0.839914
0.836106
0.832284
0.828449
0.8246
0.820737
0.81686
0.812969
0.809065
0.805145
0.801212
0.797264
0.793302
0.789325
0.785334
0.781328
0.777307
0.773271
0.76922
0.765154
0.761073
0.756976
0.752864
0.748737
0.744594
0.740436
0.736261
0.732071
0.727865
0.723643
0.719405
0.715151
0.71088
0.706594
0.70229
0.697971
0.693635
0.689282
0.684912
0.680526
0.676123
0.671703
0.667266
0.662812
0.65834
0.653852
0.649346
0.644823
0.640283
0.635725
0.631149
0.626556
0.621945
0.617316
0.61267
0.608006
0.603323
0.598623
0.593905
0.589168
0.584413
0.57964
0.574849
0.570039
0.56521
0.560363
0.555497
0.550613
0.545709
0.540787
0.535846
0.530886
0.525907
0.520908
0.51589
0.510853
0.505797
0.500721
0.495625
0.49051
0.485375
0.480221
0.475046
0.469852
0.464638
0.459403
0.454149
0.448874
0.443579
0.438263
0.432927
0.42757
0.422193
0.416795
0.411377
0.405937
0.400476
0.394995
0.389492
0.383968
0.378423
0.372857
0.367269
0.361659
0.356028
0.350375
0.344701
0.339005
0.333286
0.327546
0.321783
0.315999
0.310192
0.304363
0.298511
0.292637
0.28674
0.28082
0.274878
0.268912
0.262924
0.256913
0.250878
0.244821
0.238739
0.232635
0.226507
0.220355
0.21418
0.207981
0.201758
0.195511
0.18924
0.182945
0.176626
0.170282
0.163914
0.157521
0.151104
0.144662
0.138195
0.131703
0.125187
0.118645
0.112078
0.105485
0.0988677
0.0922245
0.0855558
0.0788613
0.0721411
0.0653949
0.0586228
0.0518246
0.0450003
0.0381496
0.0312726
0.024369
0.0174389
0.0104821
0.00349852
1.90595
1.90599
1.90596
1.90586
1.90569
1.90546
1.90515
1.90479
1.90435
1.90385
1.90327
1.90264
1.90193
1.90116
1.90032
1.89942
1.89845
1.89742
1.89633
1.89517
1.89395
1.89267
1.89134
1.88994
1.88849
1.88699
1.88543
1.88382
1.88216
1.88045
1.87869
1.87689
1.87504
1.87315
1.87122
1.86925
1.86724
1.8652
1.86312
1.86101
1.85887
1.8567
1.8545
1.85227
1.85002
1.84774
1.84544
1.84312
1.84078
1.83842
1.83605
1.83366
1.83125
1.82883
1.8264
1.82395
1.8215
1.81903
1.81656
1.81408
1.81159
1.8091
1.8066
1.8041
1.8016
1.79909
1.79658
1.79407
1.79155
1.78904
1.78653
1.78402
1.7815
1.779
1.77649
1.77399
1.77149
1.76899
1.7665
1.76401
1.76152
1.75904
1.75657
1.7541
1.75163
1.74917
1.74672
1.74427
1.74183
1.7394
1.73697
1.73455
1.73213
1.72972
1.72732
1.72493
1.72254
1.72015
1.71778
1.71541
1.71305
1.7107
1.70835
1.70601
1.70367
1.70135
1.69902
1.69671
1.6944
1.6921
1.68981
1.68752
1.68523
1.68296
1.68069
1.67842
1.67616
1.67391
1.67166
1.66942
1.66718
1.66495
1.66273
1.66051
1.65829
1.65608
1.65387
1.65167
1.64947
1.64728
1.64509
1.6429
1.64072
1.63854
1.63637
1.6342
1.63203
1.62986
1.6277
1.62555
1.62339
1.62124
1.61909
1.61694
1.6148
1.61266
1.61052
1.60838
1.60624
1.60411
1.60198
1.59985
1.59772
1.59559
1.59347
1.59134
1.58922
1.5871
1.58498
1.58286
1.58074
1.57862
1.5765
1.57438
1.57227
1.57015
1.56803
1.56592
1.5638
1.56169
1.55957
1.55745
1.55534
1.55322
1.55111
1.54899
1.54687
1.54476
1.54264
1.54052
1.5384
1.53628
1.53416
1.53204
1.52991
1.52779
1.52567
1.52354
1.52141
1.51928
1.51716
1.51502
1.51289
1.51076
1.50862
1.50649
1.50435
1.50221
1.50007
1.49793
1.49578
1.49364
1.49149
1.48934
1.48719
1.48503
1.48288
1.48072
1.47856
1.4764
1.47423
1.47207
1.4699
1.46773
1.46555
1.46338
1.4612
1.45902
1.45684
1.45465
1.45246
1.45027
1.44808
1.44588
1.44369
1.44149
1.43928
1.43707
1.43487
1.43265
1.43044
1.42822
1.426
1.42377
1.42155
1.41932
1.41708
1.41485
1.41261
1.41036
1.40812
1.40587
1.40362
1.40136
1.3991
1.39684
1.39457
1.3923
1.39003
1.38775
1.38547
1.38319
1.3809
1.37861
1.37631
1.37401
1.37171
1.3694
1.36709
1.36478
1.36246
1.36013
1.35781
1.35548
1.35314
1.3508
1.34846
1.34611
1.34376
1.3414
1.33904
1.33668
1.33431
1.33194
1.32956
1.32718
1.32479
1.3224
1.32
1.3176
1.31519
1.31278
1.31037
1.30795
1.30552
1.30309
1.30066
1.29822
1.29577
1.29332
1.29087
1.28841
1.28594
1.28347
1.28099
1.27851
1.27603
1.27353
1.27104
1.26853
1.26602
1.26351
1.26099
1.25846
1.25593
1.2534
1.25085
1.2483
1.24575
1.24319
1.24062
1.23805
1.23547
1.23288
1.23029
1.22769
1.22509
1.22248
1.21986
1.21724
1.21461
1.21198
1.20933
1.20668
1.20403
1.20137
1.1987
1.19602
1.19334
1.19065
1.18795
1.18525
1.18254
1.17982
1.17709
1.17436
1.17162
1.16887
1.16612
1.16336
1.16059
1.15781
1.15503
1.15223
1.14943
1.14663
1.14381
1.14099
1.13816
1.13532
1.13247
1.12961
1.12675
1.12388
1.121
1.11811
1.11521
1.11231
1.10939
1.10647
1.10354
1.1006
1.09765
1.0947
1.09173
1.08876
1.08577
1.08278
1.07978
1.07677
1.07375
1.07072
1.06768
1.06464
1.06158
1.05851
1.05544
1.05235
1.04926
1.04615
1.04304
1.03991
1.03678
1.03363
1.03048
1.02731
1.02414
1.02096
1.01776
1.01456
1.01134
1.00811
1.00488
1.00163
0.998375
0.995107
0.991828
0.988539
0.985239
0.981928
0.978606
0.975273
0.971929
0.968574
0.965208
0.961831
0.958442
0.955042
0.951631
0.948208
0.944774
0.941328
0.937871
0.934402
0.930921
0.927429
0.923925
0.920408
0.91688
0.91334
0.909788
0.906223
0.902647
0.899058
0.895457
0.891843
0.888217
0.884578
0.880927
0.877263
0.873587
0.869897
0.866195
0.86248
0.858752
0.85501
0.851256
0.847488
0.843707
0.839913
0.836105
0.832283
0.828448
0.824599
0.820736
0.816859
0.812968
0.809064
0.805145
0.801211
0.797264
0.793301
0.789325
0.785333
0.781327
0.777306
0.77327
0.769219
0.765153
0.761072
0.756976
0.752864
0.748737
0.744594
0.740435
0.736261
0.732071
0.727865
0.723643
0.719405
0.715151
0.71088
0.706593
0.70229
0.697971
0.693634
0.689282
0.684912
0.680526
0.676123
0.671703
0.667266
0.662812
0.65834
0.653852
0.649346
0.644823
0.640283
0.635725
0.631149
0.626556
0.621945
0.617316
0.61267
0.608006
0.603323
0.598623
0.593905
0.589168
0.584413
0.57964
0.574849
0.570039
0.56521
0.560363
0.555497
0.550613
0.545709
0.540787
0.535846
0.530886
0.525907
0.520908
0.51589
0.510853
0.505797
0.500721
0.495625
0.49051
0.485375
0.480221
0.475046
0.469852
0.464638
0.459403
0.454149
0.448874
0.443579
0.438263
0.432927
0.42757
0.422193
0.416795
0.411377
0.405937
0.400476
0.394995
0.389492
0.383968
0.378423
0.372857
0.367269
0.361659
0.356028
0.350375
0.344701
0.339005
0.333286
0.327546
0.321783
0.315999
0.310192
0.304363
0.298511
0.292637
0.28674
0.28082
0.274878
0.268912
0.262924
0.256913
0.250878
0.244821
0.238739
0.232635
0.226507
0.220355
0.21418
0.207981
0.201758
0.195511
0.18924
0.182945
0.176626
0.170282
0.163914
0.157521
0.151104
0.144662
0.138195
0.131703
0.125187
0.118645
0.112078
0.105485
0.0988677
0.0922245
0.0855558
0.0788613
0.0721411
0.0653949
0.0586228
0.0518246
0.0450003
0.0381496
0.0312726
0.024369
0.0174389
0.0104821
0.00349852
1.90892
1.90895
1.90892
1.90882
1.90863
1.90838
1.90806
1.90766
1.90719
1.90665
1.90604
1.90536
1.9046
1.90378
1.90288
1.90192
1.90089
1.89979
1.89862
1.89739
1.8961
1.89475
1.89333
1.89185
1.89032
1.88873
1.88709
1.8854
1.88365
1.88186
1.88002
1.87813
1.8762
1.87423
1.87222
1.87017
1.86808
1.86596
1.86381
1.86163
1.85941
1.85717
1.85491
1.85261
1.8503
1.84796
1.84561
1.84323
1.84084
1.83843
1.836
1.83356
1.83111
1.82865
1.82618
1.8237
1.8212
1.81871
1.8162
1.81369
1.81118
1.80866
1.80614
1.80361
1.80108
1.79856
1.79603
1.7935
1.79097
1.78845
1.78592
1.7834
1.78088
1.77836
1.77585
1.77334
1.77083
1.76833
1.76584
1.76334
1.76086
1.75838
1.7559
1.75343
1.75097
1.74851
1.74606
1.74362
1.74118
1.73875
1.73632
1.73391
1.73149
1.72909
1.72669
1.72431
1.72192
1.71955
1.71718
1.71482
1.71246
1.71012
1.70778
1.70544
1.70312
1.7008
1.69848
1.69618
1.69388
1.69158
1.6893
1.68701
1.68474
1.68247
1.68021
1.67795
1.6757
1.67345
1.67121
1.66898
1.66675
1.66453
1.66231
1.66009
1.65788
1.65568
1.65348
1.65128
1.64909
1.64691
1.64472
1.64254
1.64037
1.6382
1.63603
1.63387
1.6317
1.62955
1.62739
1.62524
1.62309
1.62094
1.6188
1.61666
1.61452
1.61238
1.61025
1.60812
1.60599
1.60386
1.60173
1.5996
1.59748
1.59536
1.59324
1.59112
1.589
1.58688
1.58476
1.58265
1.58053
1.57842
1.5763
1.57419
1.57208
1.56996
1.56785
1.56574
1.56362
1.56151
1.5594
1.55729
1.55517
1.55306
1.55095
1.54883
1.54672
1.5446
1.54249
1.54037
1.53826
1.53614
1.53402
1.5319
1.52978
1.52766
1.52554
1.52341
1.52129
1.51916
1.51704
1.51491
1.51278
1.51065
1.50851
1.50638
1.50424
1.5021
1.49996
1.49782
1.49568
1.49354
1.49139
1.48924
1.48709
1.48494
1.48278
1.48063
1.47847
1.47631
1.47415
1.47198
1.46981
1.46765
1.46547
1.4633
1.46112
1.45894
1.45676
1.45458
1.45239
1.4502
1.44801
1.44582
1.44362
1.44142
1.43922
1.43701
1.4348
1.43259
1.43038
1.42816
1.42594
1.42372
1.42149
1.41926
1.41703
1.41479
1.41255
1.41031
1.40807
1.40582
1.40356
1.40131
1.39905
1.39679
1.39452
1.39225
1.38998
1.3877
1.38542
1.38314
1.38085
1.37856
1.37627
1.37397
1.37167
1.36936
1.36705
1.36474
1.36242
1.3601
1.35777
1.35544
1.35311
1.35077
1.34842
1.34608
1.34373
1.34137
1.33901
1.33665
1.33428
1.33191
1.32953
1.32715
1.32476
1.32237
1.31997
1.31757
1.31517
1.31276
1.31034
1.30792
1.3055
1.30307
1.30063
1.29819
1.29575
1.2933
1.29084
1.28838
1.28592
1.28345
1.28097
1.27849
1.276
1.27351
1.27101
1.26851
1.266
1.26349
1.26097
1.25844
1.25591
1.25338
1.25083
1.24828
1.24573
1.24317
1.2406
1.23803
1.23545
1.23287
1.23028
1.22768
1.22507
1.22246
1.21985
1.21723
1.2146
1.21196
1.20932
1.20667
1.20401
1.20135
1.19868
1.19601
1.19332
1.19063
1.18794
1.18523
1.18252
1.17981
1.17708
1.17435
1.17161
1.16886
1.16611
1.16335
1.16058
1.1578
1.15501
1.15222
1.14942
1.14662
1.1438
1.14098
1.13815
1.13531
1.13246
1.1296
1.12674
1.12387
1.12099
1.1181
1.1152
1.1123
1.10939
1.10646
1.10353
1.10059
1.09765
1.09469
1.09172
1.08875
1.08577
1.08277
1.07977
1.07676
1.07374
1.07071
1.06768
1.06463
1.06157
1.05851
1.05543
1.05234
1.04925
1.04614
1.04303
1.03991
1.03677
1.03363
1.03047
1.02731
1.02414
1.02095
1.01776
1.01455
1.01134
1.00811
1.00487
1.00163
0.99837
0.995103
0.991824
0.988535
0.985235
0.981924
0.978602
0.975269
0.971925
0.968571
0.965205
0.961827
0.958439
0.955039
0.951628
0.948205
0.944771
0.941325
0.937868
0.934399
0.930918
0.927426
0.923922
0.920405
0.916877
0.913337
0.909785
0.906221
0.902644
0.899055
0.895454
0.891841
0.888215
0.884576
0.880925
0.877261
0.873585
0.869895
0.866193
0.862478
0.85875
0.855008
0.851254
0.847486
0.843705
0.839911
0.836103
0.832281
0.828446
0.824597
0.820735
0.816858
0.812967
0.809062
0.805143
0.80121
0.797263
0.7933
0.789324
0.785332
0.781326
0.777306
0.77327
0.769219
0.765153
0.761072
0.756975
0.752864
0.748736
0.744593
0.740435
0.736261
0.732071
0.727865
0.723643
0.719405
0.71515
0.71088
0.706593
0.70229
0.697971
0.693634
0.689282
0.684912
0.680526
0.676123
0.671703
0.667266
0.662812
0.65834
0.653852
0.649346
0.644823
0.640283
0.635725
0.631149
0.626556
0.621945
0.617316
0.61267
0.608006
0.603323
0.598623
0.593905
0.589168
0.584413
0.57964
0.574849
0.570039
0.56521
0.560363
0.555497
0.550613
0.545709
0.540787
0.535846
0.530886
0.525907
0.520908
0.51589
0.510853
0.505797
0.500721
0.495625
0.49051
0.485375
0.480221
0.475046
0.469852
0.464638
0.459403
0.454149
0.448874
0.443579
0.438263
0.432927
0.42757
0.422193
0.416795
0.411377
0.405937
0.400476
0.394995
0.389492
0.383968
0.378423
0.372857
0.367269
0.361659
0.356028
0.350375
0.344701
0.339005
0.333286
0.327546
0.321783
0.315999
0.310192
0.304363
0.298511
0.292637
0.28674
0.28082
0.274878
0.268912
0.262924
0.256913
0.250878
0.244821
0.238739
0.232635
0.226507
0.220355
0.21418
0.207981
0.201758
0.195511
0.18924
0.182945
0.176626
0.170282
0.163914
0.157521
0.151104
0.144662
0.138195
0.131703
0.125187
0.118645
0.112078
0.105485
0.0988677
0.0922245
0.0855558
0.0788613
0.0721411
0.0653949
0.0586228
0.0518246
0.0450003
0.0381496
0.0312726
0.024369
0.0174389
0.0104821
0.00349852
1.9125
1.91254
1.91251
1.91239
1.91219
1.91192
1.91156
1.91113
1.91063
1.91004
1.90938
1.90863
1.90782
1.90692
1.90596
1.90492
1.9038
1.90262
1.90137
1.90004
1.89866
1.8972
1.89569
1.89412
1.89248
1.89079
1.88905
1.88725
1.8854
1.8835
1.88156
1.87957
1.87754
1.87547
1.87336
1.87122
1.86904
1.86683
1.86458
1.86231
1.86001
1.85769
1.85534
1.85298
1.85059
1.84818
1.84575
1.84331
1.84086
1.83839
1.8359
1.83341
1.83091
1.8284
1.82588
1.82335
1.82082
1.81828
1.81574
1.8132
1.81065
1.8081
1.80555
1.803
1.80045
1.7979
1.79536
1.79281
1.79027
1.78772
1.78519
1.78265
1.78012
1.7776
1.77507
1.77256
1.77005
1.76754
1.76504
1.76255
1.76006
1.75758
1.7551
1.75264
1.75017
1.74772
1.74527
1.74283
1.7404
1.73797
1.73555
1.73314
1.73074
1.72834
1.72595
1.72357
1.7212
1.71883
1.71647
1.71412
1.71177
1.70943
1.7071
1.70478
1.70246
1.70015
1.69784
1.69555
1.69326
1.69097
1.68869
1.68642
1.68416
1.6819
1.67964
1.6774
1.67516
1.67292
1.67069
1.66846
1.66624
1.66403
1.66182
1.65961
1.65741
1.65522
1.65303
1.65084
1.64866
1.64648
1.6443
1.64213
1.63996
1.6378
1.63564
1.63348
1.63133
1.62918
1.62703
1.62489
1.62274
1.6206
1.61847
1.61633
1.6142
1.61207
1.60994
1.60781
1.60569
1.60357
1.60144
1.59932
1.59721
1.59509
1.59297
1.59086
1.58874
1.58663
1.58452
1.58241
1.5803
1.57819
1.57608
1.57397
1.57186
1.56975
1.56764
1.56553
1.56342
1.56131
1.55921
1.5571
1.55499
1.55288
1.55077
1.54866
1.54655
1.54443
1.54232
1.54021
1.53809
1.53598
1.53386
1.53175
1.52963
1.52751
1.52539
1.52327
1.52115
1.51902
1.5169
1.51477
1.51265
1.51052
1.50839
1.50625
1.50412
1.50198
1.49985
1.49771
1.49557
1.49342
1.49128
1.48913
1.48699
1.48483
1.48268
1.48053
1.47837
1.47621
1.47405
1.47189
1.46972
1.46755
1.46538
1.46321
1.46104
1.45886
1.45668
1.45449
1.45231
1.45012
1.44793
1.44574
1.44354
1.44134
1.43914
1.43694
1.43473
1.43252
1.43031
1.42809
1.42587
1.42365
1.42142
1.4192
1.41696
1.41473
1.41249
1.41025
1.40801
1.40576
1.40351
1.40125
1.39899
1.39673
1.39447
1.3922
1.38993
1.38765
1.38537
1.38309
1.3808
1.37851
1.37622
1.37392
1.37162
1.36932
1.36701
1.36469
1.36238
1.36005
1.35773
1.3554
1.35307
1.35073
1.34839
1.34604
1.34369
1.34133
1.33897
1.33661
1.33424
1.33187
1.32949
1.32711
1.32473
1.32233
1.31994
1.31754
1.31513
1.31272
1.31031
1.30789
1.30547
1.30304
1.3006
1.29816
1.29572
1.29327
1.29082
1.28836
1.28589
1.28342
1.28095
1.27847
1.27598
1.27349
1.27099
1.26849
1.26598
1.26347
1.26095
1.25842
1.25589
1.25335
1.25081
1.24826
1.24571
1.24315
1.24058
1.23801
1.23543
1.23285
1.23026
1.22766
1.22506
1.22245
1.21983
1.21721
1.21458
1.21194
1.2093
1.20665
1.204
1.20134
1.19867
1.19599
1.19331
1.19062
1.18792
1.18522
1.18251
1.17979
1.17707
1.17433
1.1716
1.16885
1.16609
1.16333
1.16056
1.15779
1.155
1.15221
1.14941
1.1466
1.14379
1.14097
1.13814
1.1353
1.13245
1.12959
1.12673
1.12386
1.12098
1.11809
1.1152
1.11229
1.10938
1.10646
1.10353
1.10059
1.09764
1.09468
1.09172
1.08874
1.08576
1.08277
1.07977
1.07676
1.07374
1.07071
1.06767
1.06462
1.06157
1.0585
1.05542
1.05234
1.04924
1.04614
1.04302
1.0399
1.03677
1.03362
1.03047
1.0273
1.02413
1.02095
1.01775
1.01455
1.01133
1.00811
1.00487
1.00162
0.998366
0.995098
0.99182
0.988531
0.985231
0.98192
0.978598
0.975265
0.971921
0.968567
0.965201
0.961823
0.958435
0.955035
0.951624
0.948202
0.944767
0.941322
0.937865
0.934396
0.930915
0.927423
0.923919
0.920402
0.916874
0.913334
0.909782
0.906218
0.902641
0.899052
0.895451
0.891838
0.888212
0.884573
0.880922
0.877259
0.873582
0.869893
0.866191
0.862476
0.858748
0.855006
0.851252
0.847484
0.843704
0.839909
0.836101
0.83228
0.828445
0.824596
0.820733
0.816857
0.812966
0.809061
0.805142
0.801209
0.797261
0.793299
0.789323
0.785332
0.781326
0.777305
0.773269
0.769218
0.765152
0.761071
0.756975
0.752863
0.748736
0.744593
0.740435
0.73626
0.73207
0.727864
0.723642
0.719404
0.71515
0.71088
0.706593
0.70229
0.69797
0.693634
0.689282
0.684912
0.680526
0.676123
0.671703
0.667266
0.662811
0.65834
0.653852
0.649346
0.644823
0.640283
0.635725
0.631149
0.626556
0.621945
0.617316
0.61267
0.608006
0.603323
0.598623
0.593905
0.589168
0.584413
0.57964
0.574849
0.570039
0.56521
0.560363
0.555497
0.550613
0.545709
0.540787
0.535846
0.530886
0.525907
0.520908
0.51589
0.510853
0.505797
0.500721
0.495625
0.49051
0.485375
0.480221
0.475046
0.469852
0.464638
0.459403
0.454149
0.448874
0.443579
0.438263
0.432927
0.42757
0.422193
0.416795
0.411377
0.405937
0.400476
0.394995
0.389492
0.383968
0.378423
0.372857
0.367269
0.361659
0.356028
0.350375
0.344701
0.339005
0.333286
0.327546
0.321783
0.315999
0.310192
0.304363