/*--------------------------------*- C++ -*----------------------------------*\
  =========                 |
  \\      /  F ield         | OpenFOAM: The Open Source CFD Toolbox
   \\    /   O peration     | Website:  https://openfoam.org
    \\  /    A nd           | Version:  7
     \\/     M anipulation  |
\*---------------------------------------------------------------------------*/
FoamFile
{
    version     2.0;
    format      ascii;
    class       surfaceScalarField;
    location    "7";
    object      phi;
}
// * * * * * * * * * * * * * * * * * * * * * * * * * * * * * * * * * * * * * //

dimensions      [0 3 -1 0 0 0 0];

internalField   nonuniform List<scalar> 
95320
(
0.00250152
-7.10056e-08
-2.1526e-13
0.00250174
-2.14567e-07
-4.32991e-13
0.0025021
-3.59899e-07
-3.56931e-13
0.0025026
-5.06712e-07
-2.34653e-13
0.00250326
-6.548e-07
-2.06326e-13
0.00250406
-8.03959e-07
-2.25209e-13
0.00250502
-9.53975e-07
-2.64934e-13
0.00250612
-1.10463e-06
-3.09879e-13
0.00250738
-1.2557e-06
-3.53679e-13
0.00250878
-1.40697e-06
-3.94193e-13
0.00251034
-1.55821e-06
-4.30036e-13
0.00251205
-1.70919e-06
-4.60686e-13
0.00251391
-1.85969e-06
-4.86968e-13
0.00251592
-2.00949e-06
-5.10837e-13
0.00251808
-2.15836e-06
-5.32172e-13
0.00252038
-2.30608e-06
-5.50018e-13
0.00252284
-2.45244e-06
-5.65392e-13
0.00252543
-2.59724e-06
-5.80631e-13
0.00252817
-2.74027e-06
-5.94752e-13
0.00253106
-2.88134e-06
-6.05976e-13
0.00253408
-3.02026e-06
-6.15578e-13
0.00253723
-3.15685e-06
-6.25662e-13
0.00254052
-3.29094e-06
-6.35665e-13
0.00254395
-3.42238e-06
-6.45557e-13
0.0025475
-3.55102e-06
-6.56476e-13
0.00255117
-3.67671e-06
-6.677e-13
0.00255497
-3.79933e-06
-6.77458e-13
0.00255889
-3.91876e-06
-6.85542e-13
0.00256293
-4.0349e-06
-6.92905e-13
0.00256707
-4.14765e-06
-6.99796e-13
0.00257133
-4.25694e-06
-7.06291e-13
0.00257569
-4.36269e-06
-7.12724e-13
0.00258016
-4.46484e-06
-7.18836e-13
0.00258472
-4.56335e-06
-7.23705e-13
0.00258938
-4.65818e-06
-7.28115e-13
0.00259413
-4.7493e-06
-7.31284e-13
0.00259897
-4.83669e-06
-7.32897e-13
0.00260389
-4.92036e-06
-7.33268e-13
0.00260889
-5.0003e-06
-7.32073e-13
0.00261396
-5.07653e-06
-7.29126e-13
0.00261911
-5.14906e-06
-7.25242e-13
0.00262433
-5.21793e-06
-7.20284e-13
0.00262961
-5.28318e-06
-7.14338e-13
0.00263496
-5.34485e-06
-7.07653e-13
0.00264036
-5.40298e-06
-6.99048e-13
0.00264582
-5.45765e-06
-6.88926e-13
0.00265133
-5.5089e-06
-6.77491e-13
0.00265688
-5.55681e-06
-6.64221e-13
0.00266249
-5.60145e-06
-6.49652e-13
0.00266813
-5.64289e-06
-6.33818e-13
0.00267381
-5.68122e-06
-6.16416e-13
0.00267953
-5.71651e-06
-5.9769e-13
0.00268528
-5.74886e-06
-5.7749e-13
0.00269105
-5.77834e-06
-5.55321e-13
0.00269686
-5.80506e-06
-5.30774e-13
0.00270269
-5.82909e-06
-5.03649e-13
0.00270854
-5.85054e-06
-4.74209e-13
0.00271441
-5.86949e-06
-4.43238e-13
0.00272029
-5.88603e-06
-4.11658e-13
0.00272619
-5.90026e-06
-3.79499e-13
0.00273211
-5.91227e-06
-3.45916e-13
0.00273803
-5.92216e-06
-3.10284e-13
0.00274396
-5.93e-06
-2.7331e-13
0.00274989
-5.9359e-06
-2.36791e-13
0.00275583
-5.93993e-06
-2.01529e-13
0.00276178
-5.94219e-06
-1.66641e-13
0.00276772
-5.94277e-06
-1.31122e-13
0.00277366
-5.94173e-06
-9.4365e-14
0.0027796
-5.93918e-06
-5.71829e-14
0.00278554
-5.93518e-06
-1.71296e-14
0.00279147
-5.92982e-06
2.58408e-14
0.00279739
-5.92317e-06
7.0825e-14
0.0028033
-5.9153e-06
1.16589e-13
0.00280921
-5.90628e-06
1.61918e-13
0.00281511
-5.89619e-06
2.09438e-13
0.00282099
-5.88509e-06
2.57635e-13
0.00282686
-5.87304e-06
3.06994e-13
0.00283272
-5.8601e-06
3.57032e-13
0.00283857
-5.84635e-06
4.06924e-13
0.0028444
-5.83182e-06
4.56143e-13
0.00285022
-5.81658e-06
5.0477e-13
0.00285602
-5.80068e-06
5.53079e-13
0.0028618
-5.78416e-06
6.00894e-13
0.00286757
-5.76709e-06
6.47712e-13
0.00287332
-5.74949e-06
6.9328e-13
0.00287905
-5.73143e-06
7.37768e-13
0.00288477
-5.71292e-06
7.81398e-13
0.00289046
-5.69403e-06
8.23919e-13
0.00289613
-5.67478e-06
8.64721e-13
0.00290179
-5.6552e-06
9.03419e-13
0.00290742
-5.63534e-06
9.40039e-13
0.00291304
-5.61521e-06
9.74776e-13
0.00291863
-5.59486e-06
1.00787e-12
0.00292421
-5.57431e-06
1.03971e-12
0.00292976
-5.55359e-06
1.07073e-12
0.0029353
-5.53271e-06
1.10103e-12
0.00294081
-5.5117e-06
1.13025e-12
0.0029463
-5.49059e-06
1.15801e-12
0.00295177
-5.46939e-06
1.18437e-12
0.00295721
-5.44812e-06
1.20958e-12
0.00296264
-5.4268e-06
1.23351e-12
0.00296805
-5.40544e-06
1.25556e-12
0.00297343
-5.38406e-06
1.27527e-12
0.00297879
-5.36267e-06
1.2927e-12
0.00298414
-5.34128e-06
1.30798e-12
0.00298946
-5.3199e-06
1.32082e-12
0.00299475
-5.29854e-06
1.33102e-12
0.00300003
-5.27722e-06
1.33913e-12
0.00300529
-5.25594e-06
1.34609e-12
0.00301052
-5.2347e-06
1.35203e-12
0.00301574
-5.21351e-06
1.3561e-12
0.00302093
-5.19238e-06
1.35755e-12
0.0030261
-5.17131e-06
1.35652e-12
0.00303125
-5.15031e-06
1.35357e-12
0.00303638
-5.12937e-06
1.34875e-12
0.00304149
-5.10851e-06
1.34152e-12
0.00304657
-5.08772e-06
1.33155e-12
0.00305164
-5.067e-06
1.31996e-12
0.00305669
-5.04636e-06
1.30791e-12
0.00306171
-5.0258e-06
1.29481e-12
0.00306672
-5.00531e-06
1.28007e-12
0.0030717
-4.98489e-06
1.26347e-12
0.00307667
-4.96455e-06
1.24571e-12
0.00308161
-4.94429e-06
1.22749e-12
0.00308654
-4.92409e-06
1.20885e-12
0.00309144
-4.90397e-06
1.18937e-12
0.00309632
-4.88391e-06
1.16895e-12
0.00310119
-4.86392e-06
1.14813e-12
0.00310603
-4.84399e-06
1.12763e-12
0.00311086
-4.82413e-06
1.10755e-12
0.00311566
-4.80432e-06
1.087e-12
0.00312045
-4.78456e-06
1.06461e-12
0.00312521
-4.76486e-06
1.03975e-12
0.00312996
-4.74521e-06
1.01295e-12
0.00313468
-4.7256e-06
9.85038e-13
0.00313939
-4.70604e-06
9.56564e-13
0.00314407
-4.68652e-06
9.27997e-13
0.00314874
-4.66703e-06
8.99861e-13
0.00315339
-4.64757e-06
8.72883e-13
0.00315802
-4.62815e-06
8.47768e-13
0.00316263
-4.60874e-06
8.24094e-13
0.00316721
-4.58937e-06
8.00164e-13
0.00317178
-4.57001e-06
7.74644e-13
0.00317634
-4.55066e-06
7.47406e-13
0.00318087
-4.53133e-06
7.18882e-13
0.00318538
-4.51201e-06
6.89681e-13
0.00318987
-4.4927e-06
6.60568e-13
0.00319434
-4.47339e-06
6.32307e-13
0.0031988
-4.45408e-06
6.05471e-13
0.00320323
-4.43476e-06
5.80735e-13
0.00320765
-4.41545e-06
5.58951e-13
0.00321205
-4.39612e-06
5.40712e-13
0.00321642
-4.37679e-06
5.25599e-13
0.00322078
-4.35744e-06
5.1224e-13
0.00322512
-4.33807e-06
4.99094e-13
0.00322944
-4.31869e-06
4.84585e-13
0.00323374
-4.29929e-06
4.67496e-13
0.00323802
-4.27987e-06
4.47476e-13
0.00324228
-4.26043e-06
4.25533e-13
0.00324652
-4.24096e-06
4.03756e-13
0.00325074
-4.22146e-06
3.84421e-13
0.00325494
-4.20194e-06
3.69257e-13
0.00325912
-4.18238e-06
3.5845e-13
0.00326329
-4.1628e-06
3.50329e-13
0.00326743
-4.14318e-06
3.42557e-13
0.00327155
-4.12353e-06
3.33243e-13
0.00327566
-4.10384e-06
3.21613e-13
0.00327974
-4.08412e-06
3.08874e-13
0.0032838
-4.06437e-06
2.97487e-13
0.00328785
-4.04457e-06
2.90087e-13
0.00329187
-4.02474e-06
2.88453e-13
0.00329588
-4.00488e-06
2.93409e-13
0.00329986
-3.98497e-06
3.0454e-13
0.00330383
-3.96503e-06
3.19029e-13
0.00330777
-3.94505e-06
3.3367e-13
0.0033117
-3.92503e-06
3.46104e-13
0.0033156
-3.90498e-06
3.54805e-13
0.00331949
-3.88488e-06
3.59297e-13
0.00332335
-3.86475e-06
3.60283e-13
0.0033272
-3.84459e-06
3.60154e-13
0.00333102
-3.82438e-06
3.6004e-13
0.00333483
-3.80414e-06
3.60409e-13
0.00333861
-3.78387e-06
3.60881e-13
0.00334237
-3.76355e-06
3.59914e-13
0.00334612
-3.74321e-06
3.55958e-13
0.00334984
-3.72283e-06
3.47337e-13
0.00335354
-3.70242e-06
3.33367e-13
0.00335722
-3.68198e-06
3.14829e-13
0.00336089
-3.66151e-06
2.93699e-13
0.00336453
-3.641e-06
2.72096e-13
0.00336815
-3.62047e-06
2.53325e-13
0.00337175
-3.59992e-06
2.40648e-13
0.00337533
-3.57933e-06
2.35466e-13
0.00337889
-3.55872e-06
2.37303e-13
0.00338242
-3.53809e-06
2.44313e-13
0.00338594
-3.51744e-06
2.54729e-13
0.00338944
-3.49676e-06
2.6548e-13
0.00339291
-3.47607e-06
2.73077e-13
0.00339637
-3.45535e-06
2.77822e-13
0.0033998
-3.43462e-06
2.80845e-13
0.00340322
-3.41388e-06
2.84365e-13
0.00340661
-3.39312e-06
2.90851e-13
0.00340998
-3.37235e-06
2.97648e-13
0.00341333
-3.35157e-06
3.0158e-13
0.00341667
-3.33078e-06
3.0169e-13
0.00341998
-3.30998e-06
2.98618e-13
0.00342326
-3.28918e-06
2.93955e-13
0.00342653
-3.26837e-06
2.8529e-13
0.00342978
-3.24756e-06
2.7398e-13
0.00343301
-3.22675e-06
2.66369e-13
0.00343621
-3.20594e-06
2.65873e-13
0.0034394
-3.18513e-06
2.70547e-13
0.00344256
-3.16432e-06
2.74745e-13
0.00344571
-3.14352e-06
2.78232e-13
0.00344883
-3.12273e-06
2.85863e-13
0.00345193
-3.10194e-06
2.99652e-13
0.00345501
-3.08117e-06
3.15451e-13
0.00345807
-3.0604e-06
3.26643e-13
0.00346111
-3.03965e-06
3.32049e-13
0.00346413
-3.01892e-06
3.34194e-13
0.00346713
-2.9982e-06
3.33262e-13
0.00347011
-2.9775e-06
3.24356e-13
0.00347306
-2.95682e-06
3.04469e-13
0.003476
-2.93616e-06
2.78818e-13
0.00347891
-2.91552e-06
2.55305e-13
0.00348181
-2.89491e-06
2.37487e-13
0.00348468
-2.87432e-06
2.22413e-13
0.00348754
-2.85376e-06
2.09428e-13
0.00349037
-2.83323e-06
2.01094e-13
0.00349318
-2.81273e-06
1.9744e-13
0.00349598
-2.79226e-06
1.96681e-13
0.00349875
-2.77182e-06
1.98491e-13
0.0035015
-2.75142e-06
2.05223e-13
0.00350423
-2.73106e-06
2.18509e-13
0.00350694
-2.71073e-06
2.39499e-13
0.00350963
-2.69044e-06
2.66664e-13
0.0035123
-2.67019e-06
2.90433e-13
0.00351495
-2.64998e-06
3.03442e-13
0.00351758
-2.62981e-06
3.04478e-13
0.00352019
-2.60969e-06
3.03226e-13
0.00352278
-2.58961e-06
3.10003e-13
0.00352535
-2.56958e-06
3.12425e-13
0.0035279
-2.5496e-06
2.97937e-13
0.00353043
-2.52966e-06
2.7631e-13
0.00353294
-2.50978e-06
2.69321e-13
0.00353543
-2.48994e-06
2.79989e-13
0.0035379
-2.47016e-06
2.96009e-13
0.00354035
-2.45043e-06
3.2099e-13
0.00354278
-2.43076e-06
3.57266e-13
0.00354519
-2.41114e-06
3.85357e-13
0.00354758
-2.39158e-06
3.9298e-13
0.00354996
-2.37208e-06
4.04864e-13
0.00355231
-2.35263e-06
4.43294e-13
0.00355464
-2.33325e-06
4.84573e-13
0.00355696
-2.31393e-06
4.96568e-13
0.00355925
-2.29467e-06
4.86567e-13
0.00356153
-2.27547e-06
4.77837e-13
0.00356378
-2.25633e-06
4.7114e-13
0.00356602
-2.23726e-06
4.52801e-13
0.00356824
-2.21826e-06
4.30886e-13
0.00357044
-2.19932e-06
4.32158e-13
0.00357262
-2.18045e-06
4.56984e-13
0.00357478
-2.16164e-06
4.76887e-13
0.00357692
-2.14291e-06
4.79429e-13
0.00357905
-2.12425e-06
4.81419e-13
0.00358115
-2.10565e-06
5.01794e-13
0.00358324
-2.08713e-06
5.28577e-13
0.00358531
-2.06868e-06
5.28964e-13
0.00358736
-2.05031e-06
4.93736e-13
0.00358939
-2.032e-06
4.53696e-13
0.0035914
-2.01377e-06
4.35152e-13
0.0035934
-1.99562e-06
4.24242e-13
0.00359538
-1.97754e-06
3.87423e-13
0.00359734
-1.95954e-06
3.23526e-13
0.00359928
-1.94162e-06
2.70573e-13
0.0036012
-1.92377e-06
2.49387e-13
0.00360311
-1.90601e-06
2.3653e-13
0.003605
-1.88832e-06
1.99845e-13
0.00360687
-1.87071e-06
1.65018e-13
0.00360872
-1.85318e-06
1.43176e-13
0.00361056
-1.83573e-06
1.34187e-13
0.00361237
-1.81836e-06
1.14672e-13
0.00361417
-1.80108e-06
5.58963e-14
0.00361596
-1.78388e-06
-2.99546e-14
0.00361773
-1.76676e-06
-1.12477e-13
0.00361948
-1.74972e-06
-1.7005e-13
0.00362121
-1.73277e-06
-2.17301e-13
0.00362292
-1.7159e-06
-2.72509e-13
0.00362462
-1.69912e-06
-3.20016e-13
0.00362631
-1.68242e-06
-3.42752e-13
0.00362797
-1.66581e-06
-3.52533e-13
0.00362962
-1.64929e-06
-3.65902e-13
0.00363125
-1.63285e-06
-3.83422e-13
0.00363287
-1.6165e-06
-4.05953e-13
0.00363447
-1.60023e-06
-4.40521e-13
0.00363605
-1.58406e-06
-4.89212e-13
0.00363762
-1.56797e-06
-5.37041e-13
0.00363917
-1.55197e-06
-5.7167e-13
0.00364071
-1.53606e-06
-5.98954e-13
0.00364223
-1.52024e-06
-6.42714e-13
0.00364374
-1.50451e-06
-7.06636e-13
0.00364522
-1.48887e-06
-7.69228e-13
0.0036467
-1.47331e-06
-8.08439e-13
0.00364816
-1.45785e-06
-8.23741e-13
0.0036496
-1.44248e-06
-8.33328e-13
0.00365102
-1.4272e-06
-8.48262e-13
0.00365244
-1.41202e-06
-8.5862e-13
0.00365383
-1.39692e-06
-8.54053e-13
0.00365522
-1.38192e-06
-8.36521e-13
0.00365658
-1.367e-06
-8.2052e-13
0.00365793
-1.35218e-06
-8.16876e-13
0.00365927
-1.33746e-06
-8.07386e-13
0.0036606
-1.32282e-06
-7.62718e-13
0.0036619
-1.30828e-06
-6.91553e-13
0.0036632
-1.29383e-06
-6.36108e-13
0.00366448
-1.27947e-06
-5.9306e-13
0.00366574
-1.26521e-06
-5.22233e-13
0.00366699
-1.25104e-06
-4.28858e-13
0.00366823
-1.23697e-06
-3.67835e-13
0.00366945
-1.22299e-06
-3.43213e-13
0.00367066
-1.2091e-06
-3.12863e-13
0.00367186
-1.19531e-06
-2.69909e-13
0.00367304
-1.18161e-06
-2.45817e-13
0.00367421
-1.168e-06
-2.29201e-13
0.00367536
-1.15449e-06
-1.94398e-13
0.0036765
-1.14108e-06
-1.5201e-13
0.00367763
-1.12776e-06
-9.38759e-14
0.00367874
-1.11453e-06
-1.32325e-14
0.00367985
-1.1014e-06
7.00419e-14
0.00368093
-1.08836e-06
1.09097e-13
0.00368201
-1.07542e-06
1.34056e-13
0.00368307
-1.06257e-06
1.72346e-13
0.00368412
-1.04982e-06
1.68759e-13
0.00368516
-1.03716e-06
1.10486e-13
0.00368618
-1.0246e-06
3.39161e-14
0.0036872
-1.01213e-06
1.67538e-15
0.0036882
-9.99756e-07
-1.25155e-14
0.00368918
-9.87477e-07
-3.48871e-14
0.00369016
-9.75293e-07
-7.63928e-14
0.00369112
-9.63203e-07
-6.75854e-14
0.00369207
-9.51208e-07
-1.21188e-14
0.00369301
-9.39307e-07
1.12257e-14
0.00369394
-9.27501e-07
2.09526e-14
0.00369486
-9.1579e-07
4.0188e-14
0.00369576
-9.04172e-07
3.36177e-14
0.00369665
-8.92649e-07
-1.84737e-14
0.00369753
-8.81219e-07
-4.02518e-14
0.0036984
-8.69884e-07
-1.22109e-14
0.00369926
-8.58642e-07
-8.89036e-15
0.00370011
-8.47493e-07
-6.42496e-14
0.00370095
-8.36438e-07
-4.38162e-14
0.00370177
-8.25476e-07
4.10045e-14
0.00370259
-8.14606e-07
1.07613e-13
0.00370339
-8.0383e-07
1.45568e-13
0.00370418
-7.93146e-07
2.34262e-13
0.00370497
-7.82554e-07
3.0954e-13
0.00370574
-7.72054e-07
3.0511e-13
0.0037065
-7.61645e-07
2.79931e-13
0.00370725
-7.51328e-07
3.06821e-13
0.00370799
-7.41101e-07
3.21833e-13
0.00370872
-7.30965e-07
2.92332e-13
0.00370944
-7.2092e-07
2.6598e-13
0.00371015
-7.10963e-07
2.01324e-13
0.00371086
-7.01096e-07
1.77487e-13
0.00371155
-6.91318e-07
2.17496e-13
0.00371223
-6.81628e-07
2.08656e-13
0.0037129
-6.72026e-07
1.81331e-13
0.00371356
-6.6251e-07
2.4393e-13
0.00371422
-6.53081e-07
2.79755e-13
0.00371486
-6.43739e-07
2.07805e-13
0.00371549
-6.34481e-07
1.18263e-13
0.00371612
-6.25307e-07
4.16672e-14
0.00371674
-6.16217e-07
9.52456e-15
0.00371734
-6.07209e-07
-6.42314e-15
0.00371794
-5.98284e-07
-7.2595e-14
0.00371853
-5.89439e-07
-1.09604e-13
0.00371911
-5.80673e-07
-1.08626e-13
0.00371968
-5.71987e-07
-4.20416e-14
0.00372025
-5.63378e-07
-5.63479e-15
0.0037208
-5.54845e-07
-4.3386e-14
0.00372135
-5.46387e-07
-3.56719e-14
0.00372189
-5.38003e-07
7.44383e-15
0.00372242
-5.29691e-07
2.52978e-15
0.00372294
-5.2145e-07
1.44513e-14
0.00372345
-5.13278e-07
2.81347e-14
0.00372396
-5.05173e-07
-5.17854e-14
0.00372445
-4.97133e-07
-1.02239e-13
0.00372494
-4.89158e-07
-2.12352e-15
0.00372542
-4.81244e-07
1.36518e-13
0.0037259
-4.73391e-07
1.48179e-13
0.00372636
-4.65595e-07
1.43087e-13
0.00372682
-4.57855e-07
2.83784e-13
0.00372727
-4.50169e-07
3.85524e-13
0.00372771
-4.42533e-07
3.50111e-13
0.00372815
-4.34947e-07
4.12692e-13
0.00372858
-4.27407e-07
4.61356e-13
0.003729
-4.19911e-07
4.09534e-13
0.00372941
-4.12457e-07
3.98618e-13
0.00372981
-4.05042e-07
3.9381e-13
0.00373021
-3.97664e-07
3.56526e-13
0.0037306
-3.90319e-07
3.82094e-13
0.00373098
-3.83006e-07
4.91444e-13
0.00373136
-3.75722e-07
4.70714e-13
0.00373173
-3.68465e-07
4.4445e-13
0.00373209
-3.61232e-07
4.88533e-13
0.00373244
-3.5402e-07
4.45178e-13
0.00373279
-3.46828e-07
4.25239e-13
0.00373313
-3.39653e-07
4.88557e-13
0.00373346
-3.32493e-07
5.44656e-13
0.00373379
-3.25347e-07
5.58829e-13
0.00373411
-3.18213e-07
4.67864e-13
0.00373442
-3.11088e-07
3.61883e-13
0.00373472
-3.03973e-07
4.19324e-13
0.00373502
-2.96865e-07
4.83025e-13
0.00373531
-2.89764e-07
5.04015e-13
0.00373559
-2.8267e-07
5.16569e-13
0.00373587
-2.75582e-07
5.10158e-13
0.00373613
-2.68501e-07
4.9631e-13
0.0037364
-2.61426e-07
5.15094e-13
0.00373665
-2.54359e-07
5.8952e-13
0.0037369
-2.473e-07
5.78183e-13
0.00373714
-2.40252e-07
6.08075e-13
0.00373737
-2.33217e-07
6.25864e-13
0.0037376
-2.26196e-07
5.88409e-13
0.00373782
-2.19192e-07
5.83371e-13
0.00373803
-2.1221e-07
6.37483e-13
0.00373823
-2.05251e-07
5.94096e-13
0.00373843
-1.98321e-07
6.02921e-13
0.00373862
-1.91425e-07
6.15069e-13
0.00373881
-1.84566e-07
5.53824e-13
0.00373899
-1.7775e-07
4.80172e-13
0.00373916
-1.70982e-07
4.71441e-13
0.00373932
-1.6427e-07
5.25042e-13
0.00373948
-1.57618e-07
4.71504e-13
0.00373963
-1.51034e-07
3.37958e-13
0.00373977
-1.44523e-07
2.73791e-13
0.00373991
-1.38094e-07
3.16375e-13
0.00374004
-1.31754e-07
3.30331e-13
0.00374017
-1.25509e-07
2.51015e-13
0.00374029
-1.19366e-07
1.9173e-13
0.0037404
-1.13335e-07
2.21423e-13
0.00374051
-1.0742e-07
2.61264e-13
0.00374061
-1.01631e-07
3.36968e-13
0.00374071
-9.5973e-08
3.18789e-13
0.0037408
-9.04542e-08
3.54385e-13
0.00374088
-8.50807e-08
3.08595e-13
0.00374096
-7.98589e-08
2.14878e-13
0.00374104
-7.47947e-08
3.27423e-13
0.00374111
-6.98937e-08
3.65424e-13
0.00374117
-6.51609e-08
2.69616e-13
0.00374123
-6.06008e-08
1.65247e-13
0.00374129
-5.62174e-08
3.8094e-14
0.00374134
-5.2014e-08
6.12086e-14
0.00374139
-4.79936e-08
1.17187e-13
0.00374143
-4.41579e-08
-7.78342e-14
0.00374147
-4.05087e-08
-1.22443e-13
0.00374151
-3.70465e-08
-1.3479e-13
0.00374154
-3.37713e-08
-9.13294e-14
0.00374158
-3.06824e-08
-1.10364e-13
0.0037416
-2.77783e-08
-4.32149e-14
0.00374163
-2.5057e-08
-6.67335e-15
0.00374165
-2.25156e-08
-1.40028e-13
0.00374167
-2.01507e-08
-4.01157e-14
0.00374169
-1.7958e-08
1.15706e-13
0.0037417
-1.59329e-08
1.29982e-13
0.00374172
-1.40699e-08
7.4728e-14
0.00374173
-1.23636e-08
2.44206e-13
0.00374174
-1.08075e-08
1.79858e-13
0.00374175
-9.39487e-09
2.929e-13
0.00374176
-8.11866e-09
3.78995e-13
0.00374177
-6.97171e-09
2.72914e-13
0.00374177
-5.9466e-09
2.8919e-13
0.00374178
-5.03544e-09
3.3695e-13
0.00374178
-4.23049e-09
3.55314e-13
0.00374179
-3.52408e-09
3.97506e-13
0.00374179
-2.90832e-09
3.58688e-13
0.00374179
-2.37565e-09
3.32231e-13
0.00374179
-1.91847e-09
4.0732e-13
0.00374179
-1.52929e-09
3.84339e-13
0.0037418
-1.20153e-09
4.5795e-13
0.0037418
-9.28154e-10
3.72538e-13
0.0037418
-7.02794e-10
3.24674e-13
0.0037418
-5.19445e-10
4.40817e-13
0.0037418
-3.72486e-10
5.92554e-13
0.0037418
-2.56702e-10
3.53353e-13
0.0037418
-1.67506e-10
2.92403e-13
0.0037418
-1.00371e-10
3.44469e-13
0.0037418
-5.14963e-11
3.92855e-13
0.0037418
-1.73804e-11
2.8041e-13
0.0037418
4.79595e-12
1.53158e-13
0.0037418
1.77601e-11
9.50697e-14
0.0037418
2.37361e-11
5.72479e-14
0.0037418
2.4544e-11
1.18131e-13
0.0037418
2.19336e-11
-4.94003e-14
0.0037418
1.67767e-11
1.15443e-14
0.0037418
1.03433e-11
1.05848e-13
0.0037418
3.4321e-12
3.30466e-14
0.0037418
-3.40114e-12
-4.30499e-14
0.0037418
-9.99948e-12
1.29991e-13
0.0037418
-1.58539e-11
-1.22287e-14
0.0037418
-2.08597e-11
-1.16948e-13
0.0037418
-2.51698e-11
8.12602e-14
0.0037418
-2.85087e-11
5.58206e-14
0.0037418
-3.11301e-11
7.37727e-14
0.0037418
-3.28864e-11
4.90316e-14
0.0037418
-3.38838e-11
-5.65524e-14
0.0037418
-3.49305e-11
1.99769e-13
0.0037418
-3.49633e-11
1.27175e-14
0.0037418
-3.46608e-11
-8.46662e-14
0.0037418
-3.45614e-11
1.92839e-13
0.0037418
-3.38775e-11
6.2972e-14
0.0037418
-3.32257e-11
-2.62904e-14
0.0037418
-3.27137e-11
2.38698e-13
0.0037418
-3.16025e-11
-4.15357e-14
0.0037418
-3.12245e-11
2.24694e-13
0.0037418
-3.04535e-11
7.63845e-14
0.0037418
-2.98724e-11
2.49735e-13
0.0037418
-2.9143e-11
2.92531e-13
0.0037418
-2.85488e-11
2.84592e-13
0.0037418
-2.82292e-11
3.77008e-13
0.0037418
-2.76351e-11
2.64412e-13
0.0037418
-2.7134e-11
4.10161e-13
0.0037418
-2.66963e-11
3.99057e-13
0.0037418
-2.6552e-11
6.22691e-13
0.0037418
-2.58851e-11
4.57092e-13
0.0037418
-2.53525e-11
3.63136e-13
0.0037418
-2.52397e-11
5.01931e-13
0.0037418
-2.4887e-11
5.1043e-13
0.0037418
-2.43414e-11
3.65577e-13
0.0037418
-2.40356e-11
3.62737e-13
0.0037418
-2.36318e-11
4.29475e-13
0.0037418
-2.32562e-11
3.60951e-13
0.0037418
-2.29398e-11
3.21059e-13
0.0037418
-2.24014e-11
6.48138e-14
0.0037418
-2.2231e-11
3.38265e-13
0.0037418
-2.16669e-11
1.04934e-13
0.0037418
-2.14197e-11
2.91016e-14
0.0037418
-2.10627e-11
3.09541e-14
0.0037418
-2.05707e-11
-1.33568e-13
0.0037418
-2.01595e-11
-2.88818e-13
0.0037418
-2.02005e-11
5.32015e-14
0.0037418
-1.95931e-11
-3.31338e-13
0.0037418
-1.94131e-11
-1.28454e-13
0.0037418
-1.90055e-11
-2.48934e-13
0.0037418
-1.87981e-11
-3.15853e-13
0.0037418
-1.83609e-11
-3.48254e-13
0.0037418
-1.83523e-11
-1.79002e-13
0.0037418
-1.78924e-11
-4.40549e-13
0.0037418
-1.78531e-11
-6.95757e-14
0.0037418
-1.74256e-11
-2.59252e-13
0.0037418
-1.7331e-11
-1.75257e-13
0.0037418
-1.70112e-11
-2.20559e-13
0.0037418
-1.68711e-11
-2.98163e-14
0.0037418
-1.6612e-11
-1.76892e-13
0.0037418
-1.63207e-11
-3.03354e-13
0.0037418
-1.6175e-11
-1.92036e-13
0.0037418
-1.56822e-11
-4.94221e-13
0.0037418
-1.57197e-11
-2.35716e-13
0.0037418
-1.54027e-11
-4.45363e-13
0.0037418
-1.52219e-11
-5.30589e-13
0.0037418
-1.47938e-11
-6.12543e-13
0.0037418
-1.49048e-11
-3.6703e-13
0.0037418
-1.46325e-11
-5.71486e-13
0.0037418
-1.43578e-11
-5.62851e-13
0.0037418
-1.42791e-11
-4.82544e-13
0.0037418
-1.40415e-11
-5.31679e-13
0.0037418
-1.39964e-11
-3.76025e-13
0.0037418
-1.36186e-11
-5.56718e-13
0.0037418
-1.34514e-11
-6.35197e-13
0.0037418
-1.33282e-11
-6.75929e-13
0.0037418
-1.35834e-11
-3.00329e-13
0.0037418
-1.28828e-11
-7.28738e-13
0.0037418
-1.32315e-11
-1.66079e-13
0.0037418
-1.26656e-11
-6.27274e-13
0.0037418
-1.28353e-11
-2.77264e-13
0.0037418
-1.24596e-11
-5.36439e-13
0.0037418
-1.26952e-11
-1.20587e-13
0.0037418
-1.23816e-11
-2.80399e-13
0.0037418
-1.22446e-11
-3.34791e-13
0.0037418
-1.18909e-11
-6.74971e-13
0.0037418
-1.21004e-11
-2.16671e-13
0.0037418
-1.18813e-11
-2.15154e-13
0.0037418
-1.13457e-11
-4.51616e-13
0.0037418
-1.17448e-11
3.10717e-14
0.0037418
-1.17029e-11
-3.86251e-14
0.0037418
-1.10094e-11
-4.54286e-13
0.0037418
-1.13106e-11
-5.45735e-14
0.0037418
-1.11838e-11
-4.52181e-14
0.0037418
-1.13059e-11
2.53855e-13
0.0037418
-1.06322e-11
-2.14262e-13
0.0037418
-1.06125e-11
1.57526e-13
0.0037418
-1.04305e-11
1.44259e-13
0.0037418
-9.84054e-12
-7.06386e-14
0.0037418
-9.99407e-12
1.87286e-13
0.0037418
-8.89838e-12
-6.1812e-14
0.0037418
-7.9076e-12
-9.73459e-14
0.0037418
-6.77642e-12
1.84961e-13
0.0037418
-4.61905e-12
2.09859e-13
0.0037418
-3.19361e-12
2.40219e-13
1.61234e-12
1.42982e-13
0.00240039
-1.40666e-07
0.0024006
-4.2503e-07
0.00240096
-7.12898e-07
0.00240145
-1.00369e-06
0.0024021
-1.29699e-06
0.00240288
-1.59239e-06
0.00240382
-1.88945e-06
0.0024049
-2.18774e-06
0.00240613
-2.48681e-06
0.00240751
-2.7862e-06
0.00240904
-3.08547e-06
0.00241071
-3.38416e-06
0.00241254
-3.68181e-06
0.00241451
-3.97798e-06
0.00241662
-4.27222e-06
0.00241888
-4.5641e-06
0.00242128
-4.85319e-06
0.00242382
-5.13907e-06
0.0024265
-5.42134e-06
0.00242932
-5.69962e-06
0.00243227
-5.97354e-06
0.00243536
-6.24274e-06
0.00243857
-6.50688e-06
0.00244192
-6.76567e-06
0.00244539
-7.01879e-06
0.00244897
-7.26599e-06
0.00245268
-7.50702e-06
0.00245651
-7.74165e-06
0.00246044
-7.96967e-06
0.00246448
-8.19092e-06
0.00246863
-8.40523e-06
0.00247288
-8.61247e-06
0.00247723
-8.81254e-06
0.00248167
-9.00535e-06
0.0024862
-9.19082e-06
0.00249082
-9.36893e-06
0.00249553
-9.53964e-06
0.00250031
-9.70295e-06
0.00250517
-9.85888e-06
0.0025101
-1.00075e-05
0.0025151
-1.01487e-05
0.00252016
-1.02828e-05
0.00252529
-1.04097e-05
0.00253047
-1.05295e-05
0.00253571
-1.06423e-05
0.002541
-1.07484e-05
0.00254634
-1.08477e-05
0.00255173
-1.09405e-05
0.00255715
-1.10268e-05
0.00256262
-1.11069e-05
0.00256812
-1.11808e-05
0.00257365
-1.12489e-05
0.00257921
-1.13111e-05
0.0025848
-1.13678e-05
0.00259041
-1.1419e-05
0.00259605
-1.14651e-05
0.0026017
-1.1506e-05
0.00260738
-1.15421e-05
0.00261306
-1.15735e-05
0.00261877
-1.16004e-05
0.00262448
-1.1623e-05
0.0026302
-1.16414e-05
0.00263592
-1.16558e-05
0.00264165
-1.16665e-05
0.00264739
-1.16735e-05
0.00265312
-1.16771e-05
0.00265885
-1.16774e-05
0.00266459
-1.16746e-05
0.00267032
-1.16688e-05
0.00267604
-1.16602e-05
0.00268176
-1.1649e-05
0.00268747
-1.16352e-05
0.00269318
-1.16191e-05
0.00269887
-1.16007e-05
0.00270456
-1.15803e-05
0.00271023
-1.15578e-05
0.00271589
-1.15335e-05
0.00272154
-1.15075e-05
0.00272717
-1.14799e-05
0.00273279
-1.14507e-05
0.00273839
-1.14202e-05
0.00274398
-1.13883e-05
0.00274955
-1.13552e-05
0.00275511
-1.1321e-05
0.00276064
-1.12858e-05
0.00276616
-1.12497e-05
0.00277166
-1.12126e-05
0.00277714
-1.11748e-05
0.0027826
-1.11363e-05
0.00278804
-1.10971e-05
0.00279347
-1.10573e-05
0.00279887
-1.1017e-05
0.00280425
-1.09762e-05
0.00280961
-1.0935e-05
0.00281495
-1.08934e-05
0.00282027
-1.08514e-05
0.00282557
-1.08092e-05
0.00283084
-1.07668e-05
0.0028361
-1.07241e-05
0.00284133
-1.06813e-05
0.00284654
-1.06384e-05
0.00285173
-1.05953e-05
0.0028569
-1.05522e-05
0.00286205
-1.0509e-05
0.00286717
-1.04658e-05
0.00287227
-1.04225e-05
0.00287735
-1.03793e-05
0.00288241
-1.03361e-05
0.00288745
-1.0293e-05
0.00289246
-1.02499e-05
0.00289746
-1.02069e-05
0.00290243
-1.0164e-05
0.00290738
-1.01211e-05
0.00291231
-1.00784e-05
0.00291721
-1.00358e-05
0.0029221
-9.99329e-06
0.00292696
-9.9509e-06
0.0029318
-9.90864e-06
0.00293662
-9.86651e-06
0.00294142
-9.8245e-06
0.0029462
-9.78263e-06
0.00295096
-9.74089e-06
0.00295569
-9.69928e-06
0.0029604
-9.6578e-06
0.0029651
-9.61646e-06
0.00296977
-9.57523e-06
0.00297442
-9.53414e-06
0.00297905
-9.49317e-06
0.00298366
-9.45231e-06
0.00298824
-9.41158e-06
0.00299281
-9.37095e-06
0.00299736
-9.33043e-06
0.00300188
-9.29002e-06
0.00300638
-9.2497e-06
0.00301087
-9.20948e-06
0.00301533
-9.16934e-06
0.00301977
-9.12929e-06
0.0030242
-9.08932e-06
0.0030286
-9.04943e-06
0.00303298
-9.0096e-06
0.00303734
-8.96983e-06
0.00304168
-8.93012e-06
0.003046
-8.89046e-06
0.0030503
-8.85085e-06
0.00305458
-8.81129e-06
0.00305884
-8.77176e-06
0.00306308
-8.73226e-06
0.0030673
-8.69279e-06
0.0030715
-8.65334e-06
0.00307568
-8.61391e-06
0.00307984
-8.57449e-06
0.00308398
-8.53508e-06
0.0030881
-8.49567e-06
0.0030922
-8.45627e-06
0.00309627
-8.41686e-06
0.00310033
-8.37744e-06
0.00310437
-8.33802e-06
0.00310839
-8.29858e-06
0.00311239
-8.25912e-06
0.00311637
-8.21965e-06
0.00312033
-8.18015e-06
0.00312427
-8.14062e-06
0.00312818
-8.10107e-06
0.00313208
-8.06149e-06
0.00313596
-8.02187e-06
0.00313982
-7.98223e-06
0.00314366
-7.94254e-06
0.00314748
-7.90282e-06
0.00315128
-7.86306e-06
0.00315505
-7.82327e-06
0.00315881
-7.78343e-06
0.00316255
-7.74355e-06
0.00316627
-7.70363e-06
0.00316997
-7.66367e-06
0.00317365
-7.62367e-06
0.00317731
-7.58362e-06
0.00318095
-7.54353e-06
0.00318456
-7.50341e-06
0.00318816
-7.46323e-06
0.00319174
-7.42302e-06
0.0031953
-7.38277e-06
0.00319884
-7.34248e-06
0.00320236
-7.30216e-06
0.00320585
-7.26179e-06
0.00320933
-7.22139e-06
0.00321279
-7.18096e-06
0.00321623
-7.14049e-06
0.00321965
-7.09999e-06
0.00322304
-7.05946e-06
0.00322642
-7.0189e-06
0.00322978
-6.97831e-06
0.00323312
-6.9377e-06
0.00323644
-6.89707e-06
0.00323973
-6.85642e-06
0.00324301
-6.81575e-06
0.00324627
-6.77506e-06
0.00324951
-6.73436e-06
0.00325272
-6.69365e-06
0.00325592
-6.65293e-06
0.0032591
-6.6122e-06
0.00326226
-6.57147e-06
0.00326539
-6.53073e-06
0.00326851
-6.49e-06
0.00327161
-6.44927e-06
0.00327469
-6.40854e-06
0.00327775
-6.36782e-06
0.00328078
-6.32712e-06
0.0032838
-6.28643e-06
0.0032868
-6.24575e-06
0.00328978
-6.20509e-06
0.00329274
-6.16446e-06
0.00329567
-6.12385e-06
0.00329859
-6.08327e-06
0.00330149
-6.04271e-06
0.00330437
-6.00219e-06
0.00330723
-5.96171e-06
0.00331007
-5.92126e-06
0.00331289
-5.88086e-06
0.00331569
-5.84049e-06
0.00331847
-5.80018e-06
0.00332124
-5.75991e-06
0.00332398
-5.71969e-06
0.0033267
-5.67953e-06
0.0033294
-5.63942e-06
0.00333209
-5.59938e-06
0.00333475
-5.55939e-06
0.0033374
-5.51947e-06
0.00334002
-5.47962e-06
0.00334263
-5.43983e-06
0.00334522
-5.40012e-06
0.00334779
-5.36048e-06
0.00335034
-5.32092e-06
0.00335287
-5.28144e-06
0.00335538
-5.24204e-06
0.00335787
-5.20272e-06
0.00336034
-5.16349e-06
0.0033628
-5.12434e-06
0.00336523
-5.08529e-06
0.00336765
-5.04633e-06
0.00337005
-5.00747e-06
0.00337242
-4.9687e-06
0.00337478
-4.93003e-06
0.00337713
-4.89146e-06
0.00337945
-4.853e-06
0.00338175
-4.81464e-06
0.00338404
-4.77639e-06
0.00338631
-4.73825e-06
0.00338856
-4.70022e-06
0.00339079
-4.6623e-06
0.003393
-4.6245e-06
0.0033952
-4.58681e-06
0.00339738
-4.54925e-06
0.00339954
-4.5118e-06
0.00340168
-4.47448e-06
0.0034038
-4.43728e-06
0.00340591
-4.4002e-06
0.00340799
-4.36325e-06
0.00341006
-4.32643e-06
0.00341212
-4.28974e-06
0.00341415
-4.25319e-06
0.00341617
-4.21676e-06
0.00341817
-4.18047e-06
0.00342015
-4.14432e-06
0.00342212
-4.1083e-06
0.00342406
-4.07243e-06
0.003426
-4.03669e-06
0.00342791
-4.0011e-06
0.00342981
-3.96565e-06
0.00343169
-3.93034e-06
0.00343355
-3.89518e-06
0.0034354
-3.86016e-06
0.00343723
-3.8253e-06
0.00343904
-3.79058e-06
0.00344084
-3.75601e-06
0.00344262
-3.7216e-06
0.00344438
-3.68733e-06
0.00344613
-3.65323e-06
0.00344786
-3.61927e-06
0.00344957
-3.58547e-06
0.00345127
-3.55183e-06
0.00345295
-3.51835e-06
0.00345462
-3.48502e-06
0.00345627
-3.45186e-06
0.00345791
-3.41885e-06
0.00345952
-3.38601e-06
0.00346113
-3.35333e-06
0.00346272
-3.32081e-06
0.00346429
-3.28845e-06
0.00346585
-3.25626e-06
0.00346739
-3.22424e-06
0.00346891
-3.19238e-06
0.00347043
-3.16069e-06
0.00347192
-3.12917e-06
0.0034734
-3.09781e-06
0.00347487
-3.06663e-06
0.00347632
-3.03561e-06
0.00347776
-3.00477e-06
0.00347918
-2.9741e-06
0.00348059
-2.94359e-06
0.00348198
-2.91326e-06
0.00348336
-2.88311e-06
0.00348472
-2.85312e-06
0.00348607
-2.82331e-06
0.00348741
-2.79368e-06
0.00348873
-2.76422e-06
0.00349004
-2.73493e-06
0.00349133
-2.70583e-06
0.00349261
-2.67689e-06
0.00349388
-2.64814e-06
0.00349513
-2.61956e-06
0.00349637
-2.59116e-06
0.0034976
-2.56293e-06
0.00349881
-2.53489e-06
0.00350001
-2.50702e-06
0.00350119
-2.47933e-06
0.00350236
-2.45183e-06
0.00350352
-2.4245e-06
0.00350467
-2.39735e-06
0.0035058
-2.37038e-06
0.00350692
-2.34359e-06
0.00350803
-2.31698e-06
0.00350913
-2.29055e-06
0.00351021
-2.2643e-06
0.00351128
-2.23824e-06
0.00351234
-2.21235e-06
0.00351338
-2.18665e-06
0.00351442
-2.16113e-06
0.00351544
-2.13578e-06
0.00351645
-2.11062e-06
0.00351745