/*--------------------------------*- C++ -*----------------------------------*\
  =========                 |
  \\      /  F ield         | OpenFOAM: The Open Source CFD Toolbox
   \\    /   O peration     | Website:  https://openfoam.org
    \\  /    A nd           | Version:  7
     \\/     M anipulation  |
\*---------------------------------------------------------------------------*/
FoamFile
{
    version     2.0;
    format      ascii;
    class       volVectorField;
    location    "7";
    object      U;
}
// * * * * * * * * * * * * * * * * * * * * * * * * * * * * * * * * * * * * * //

dimensions      [0 1 -1 0 0 0 0];

internalField   nonuniform List<vector> 
48000
(
(1.00001 -5.53414e-05 0)
(1.00006 -0.000166425 0)
(1.00017 -0.000277962 0)
(1.00034 -0.00038978 0)
(1.00058 -0.000501716 0)
(1.00087 -0.000613607 0)
(1.00122 -0.00072529 0)
(1.00163 -0.000836598 0)
(1.0021 -0.000947367 0)
(1.00264 -0.00105743 0)
(1.00323 -0.00116662 0)
(1.00388 -0.00127479 0)
(1.00459 -0.00138176 0)
(1.00537 -0.00148738 0)
(1.0062 -0.00159151 0)
(1.00709 -0.001694 0)
(1.00805 -0.0017947 0)
(1.00905 -0.00189349 0)
(1.01012 -0.00199022 0)
(1.01125 -0.00208479 0)
(1.01243 -0.00217707 0)
(1.01366 -0.00226697 0)
(1.01495 -0.00235438 0)
(1.01629 -0.00243921 0)
(1.01769 -0.00252139 0)
(1.01913 -0.00260084 0)
(1.02063 -0.0026775 0)
(1.02217 -0.00275132 0)
(1.02376 -0.00282224 0)
(1.0254 -0.00289024 0)
(1.02708 -0.00295529 0)
(1.0288 -0.00301737 0)
(1.03056 -0.00307646 0)
(1.03237 -0.00313256 0)
(1.03421 -0.00318569 0)
(1.03609 -0.00323585 0)
(1.03801 -0.00328305 0)
(1.03996 -0.00332734 0)
(1.04194 -0.00336873 0)
(1.04396 -0.00340727 0)
(1.046 -0.00344301 0)
(1.04808 -0.00347598 0)
(1.05017 -0.00350625 0)
(1.0523 -0.00353386 0)
(1.05445 -0.00355889 0)
(1.05662 -0.0035814 0)
(1.05881 -0.00360145 0)
(1.06102 -0.00361911 0)
(1.06325 -0.00363446 0)
(1.0655 -0.00364757 0)
(1.06777 -0.00365852 0)
(1.07005 -0.00366738 0)
(1.07234 -0.00367422 0)
(1.07464 -0.00367914 0)
(1.07696 -0.0036822 0)
(1.07928 -0.00368348 0)
(1.08162 -0.00368306 0)
(1.08396 -0.00368101 0)
(1.08631 -0.00367742 0)
(1.08867 -0.00367236 0)
(1.09103 -0.0036659 0)
(1.09339 -0.00365811 0)
(1.09576 -0.00364906 0)
(1.09814 -0.00363883 0)
(1.10051 -0.00362749 0)
(1.10288 -0.00361509 0)
(1.10526 -0.0036017 0)
(1.10764 -0.00358739 0)
(1.11001 -0.00357222 0)
(1.11238 -0.00355624 0)
(1.11476 -0.00353951 0)
(1.11713 -0.00352208 0)
(1.11949 -0.00350401 0)
(1.12186 -0.00348535 0)
(1.12421 -0.00346615 0)
(1.12657 -0.00344644 0)
(1.12892 -0.00342629 0)
(1.13126 -0.00340572 0)
(1.1336 -0.00338478 0)
(1.13594 -0.00336351 0)
(1.13827 -0.00334194 0)
(1.14059 -0.00332011 0)
(1.14291 -0.00329805 0)
(1.14521 -0.00327579 0)
(1.14752 -0.00325336 0)
(1.14981 -0.00323079 0)
(1.1521 -0.00320811 0)
(1.15438 -0.00318533 0)
(1.15665 -0.00316248 0)
(1.15892 -0.00313959 0)
(1.16117 -0.00311667 0)
(1.16342 -0.00309374 0)
(1.16566 -0.00307082 0)
(1.1679 -0.00304792 0)
(1.17012 -0.00302507 0)
(1.17234 -0.00300226 0)
(1.17454 -0.00297952 0)
(1.17674 -0.00295686 0)
(1.17893 -0.00293429 0)
(1.18112 -0.00291182 0)
(1.18329 -0.00288945 0)
(1.18545 -0.00286719 0)
(1.18761 -0.00284506 0)
(1.18976 -0.00282305 0)
(1.1919 -0.00280118 0)
(1.19403 -0.00277944 0)
(1.19615 -0.00275785 0)
(1.19827 -0.0027364 0)
(1.20037 -0.0027151 0)
(1.20247 -0.00269396 0)
(1.20456 -0.00267296 0)
(1.20664 -0.00265212 0)
(1.20871 -0.00263144 0)
(1.21077 -0.00261091 0)
(1.21283 -0.00259054 0)
(1.21487 -0.00257033 0)
(1.21691 -0.00255028 0)
(1.21894 -0.00253038 0)
(1.22096 -0.00251064 0)
(1.22297 -0.00249105 0)
(1.22498 -0.00247162 0)
(1.22698 -0.00245233 0)
(1.22897 -0.0024332 0)
(1.23095 -0.00241422 0)
(1.23292 -0.00239538 0)
(1.23488 -0.00237669 0)
(1.23684 -0.00235814 0)
(1.23879 -0.00233973 0)
(1.24073 -0.00232146 0)
(1.24266 -0.00230333 0)
(1.24459 -0.00228532 0)
(1.2465 -0.00226745 0)
(1.24841 -0.00224971 0)
(1.25031 -0.00223209 0)
(1.2522 -0.0022146 0)
(1.25409 -0.00219723 0)
(1.25597 -0.00217997 0)
(1.25784 -0.00216283 0)
(1.2597 -0.00214581 0)
(1.26155 -0.00212889 0)
(1.2634 -0.00211209 0)
(1.26524 -0.00209539 0)
(1.26707 -0.0020788 0)
(1.26889 -0.0020623 0)
(1.27071 -0.00204591 0)
(1.27251 -0.00202962 0)
(1.27431 -0.00201342 0)
(1.27611 -0.00199731 0)
(1.27789 -0.0019813 0)
(1.27967 -0.00196538 0)
(1.28144 -0.00194954 0)
(1.2832 -0.00193379 0)
(1.28495 -0.00191813 0)
(1.2867 -0.00190255 0)
(1.28844 -0.00188705 0)
(1.29017 -0.00187163 0)
(1.29189 -0.00185629 0)
(1.2936 -0.00184103 0)
(1.29531 -0.00182585 0)
(1.29701 -0.00181074 0)
(1.2987 -0.0017957 0)
(1.30038 -0.00178074 0)
(1.30206 -0.00176585 0)
(1.30373 -0.00175103 0)
(1.30539 -0.00173629 0)
(1.30704 -0.00172161 0)
(1.30869 -0.001707 0)
(1.31032 -0.00169246 0)
(1.31195 -0.00167799 0)
(1.31357 -0.00166359 0)
(1.31518 -0.00164926 0)
(1.31679 -0.00163499 0)
(1.31839 -0.00162078 0)
(1.31998 -0.00160665 0)
(1.32156 -0.00159258 0)
(1.32313 -0.00157857 0)
(1.3247 -0.00156463 0)
(1.32625 -0.00155076 0)
(1.3278 -0.00153695 0)
(1.32934 -0.0015232 0)
(1.33088 -0.00150953 0)
(1.3324 -0.00149591 0)
(1.33392 -0.00148236 0)
(1.33543 -0.00146888 0)
(1.33693 -0.00145546 0)
(1.33842 -0.00144211 0)
(1.3399 -0.00142882 0)
(1.34138 -0.00141559 0)
(1.34285 -0.00140244 0)
(1.34431 -0.00138935 0)
(1.34576 -0.00137632 0)
(1.3472 -0.00136336 0)
(1.34864 -0.00135047 0)
(1.35006 -0.00133764 0)
(1.35148 -0.00132488 0)
(1.35289 -0.00131219 0)
(1.35429 -0.00129956 0)
(1.35569 -0.00128701 0)
(1.35707 -0.00127452 0)
(1.35845 -0.0012621 0)
(1.35982 -0.00124974 0)
(1.36118 -0.00123746 0)
(1.36253 -0.00122525 0)
(1.36388 -0.0012131 0)
(1.36521 -0.00120102 0)
(1.36654 -0.00118902 0)
(1.36786 -0.00117708 0)
(1.36917 -0.00116521 0)
(1.37047 -0.00115342 0)
(1.37176 -0.00114169 0)
(1.37305 -0.00113004 0)
(1.37433 -0.00111846 0)
(1.3756 -0.00110695 0)
(1.37686 -0.00109551 0)
(1.37811 -0.00108414 0)
(1.37935 -0.00107285 0)
(1.38059 -0.00106162 0)
(1.38182 -0.00105047 0)
(1.38304 -0.0010394 0)
(1.38425 -0.00102839 0)
(1.38545 -0.00101746 0)
(1.38665 -0.0010066 0)
(1.38783 -0.000995817 0)
(1.38901 -0.000985105 0)
(1.39018 -0.000974468 0)
(1.39134 -0.000963904 0)
(1.39249 -0.000953414 0)
(1.39364 -0.000942998 0)
(1.39478 -0.000932655 0)
(1.3959 -0.000922387 0)
(1.39702 -0.000912193 0)
(1.39814 -0.000902073 0)
(1.39924 -0.000892028 0)
(1.40034 -0.000882056 0)
(1.40142 -0.000872159 0)
(1.4025 -0.000862336 0)
(1.40358 -0.000852587 0)
(1.40464 -0.000842913 0)
(1.40569 -0.000833312 0)
(1.40674 -0.000823786 0)
(1.40778 -0.000814334 0)
(1.40881 -0.000804956 0)
(1.40983 -0.000795651 0)
(1.41085 -0.000786421 0)
(1.41186 -0.000777264 0)
(1.41286 -0.000768181 0)
(1.41385 -0.000759172 0)
(1.41483 -0.000750236 0)
(1.41581 -0.000741373 0)
(1.41678 -0.000732584 0)
(1.41774 -0.000723867 0)
(1.41869 -0.000715224 0)
(1.41963 -0.000706653 0)
(1.42057 -0.000698154 0)
(1.4215 -0.000689728 0)
(1.42242 -0.000681374 0)
(1.42333 -0.000673093 0)
(1.42424 -0.000664882 0)
(1.42514 -0.000656744 0)
(1.42603 -0.000648677 0)
(1.42691 -0.00064068 0)
(1.42778 -0.000632755 0)
(1.42865 -0.0006249 0)
(1.42951 -0.000617116 0)
(1.43037 -0.000609402 0)
(1.43121 -0.000601758 0)
(1.43205 -0.000594183 0)
(1.43288 -0.000586678 0)
(1.4337 -0.000579242 0)
(1.43452 -0.000571875 0)
(1.43533 -0.000564576 0)
(1.43613 -0.000557346 0)
(1.43692 -0.000550183 0)
(1.43771 -0.000543088 0)
(1.43849 -0.000536061 0)
(1.43926 -0.000529101 0)
(1.44003 -0.000522207 0)
(1.44079 -0.00051538 0)
(1.44154 -0.000508618 0)
(1.44228 -0.000501923 0)
(1.44302 -0.000495293 0)
(1.44375 -0.000488728 0)
(1.44447 -0.000482228 0)
(1.44519 -0.000475793 0)
(1.4459 -0.000469422 0)
(1.4466 -0.000463114 0)
(1.4473 -0.00045687 0)
(1.44799 -0.000450689 0)
(1.44867 -0.000444571 0)
(1.44935 -0.000438515 0)
(1.45002 -0.000432521 0)
(1.45068 -0.000426589 0)
(1.45133 -0.000420719 0)
(1.45198 -0.000414909 0)
(1.45263 -0.00040916 0)
(1.45326 -0.000403471 0)
(1.45389 -0.000397842 0)
(1.45452 -0.000392273 0)
(1.45513 -0.000386763 0)
(1.45575 -0.000381311 0)
(1.45635 -0.000375918 0)
(1.45695 -0.000370584 0)
(1.45754 -0.000365306 0)
(1.45813 -0.000360087 0)
(1.45871 -0.000354924 0)
(1.45928 -0.000349817 0)
(1.45985 -0.000344767 0)
(1.46041 -0.000339773 0)
(1.46096 -0.000334834 0)
(1.46151 -0.00032995 0)
(1.46206 -0.000325121 0)
(1.46259 -0.000320346 0)
(1.46313 -0.000315625 0)
(1.46365 -0.000310958 0)
(1.46417 -0.000306344 0)
(1.46469 -0.000301783 0)
(1.4652 -0.000297274 0)
(1.4657 -0.000292817 0)
(1.4662 -0.000288411 0)
(1.46669 -0.000284057 0)
(1.46717 -0.000279754 0)
(1.46765 -0.000275502 0)
(1.46813 -0.000271299 0)
(1.4686 -0.000267146 0)
(1.46906 -0.000263043 0)
(1.46952 -0.000258989 0)
(1.46998 -0.000254983 0)
(1.47042 -0.000251025 0)
(1.47087 -0.000247116 0)
(1.4713 -0.000243253 0)
(1.47174 -0.000239438 0)
(1.47216 -0.00023567 0)
(1.47259 -0.000231948 0)
(1.473 -0.000228271 0)
(1.47342 -0.000224641 0)
(1.47382 -0.000221055 0)
(1.47422 -0.000217515 0)
(1.47462 -0.000214019 0)
(1.47501 -0.000210567 0)
(1.4754 -0.000207158 0)
(1.47578 -0.000203793 0)
(1.47616 -0.000200471 0)
(1.47654 -0.000197192 0)
(1.4769 -0.000193954 0)
(1.47727 -0.000190759 0)
(1.47763 -0.000187605 0)
(1.47798 -0.000184492 0)
(1.47833 -0.000181419 0)
(1.47868 -0.000178387 0)
(1.47902 -0.000175395 0)
(1.47935 -0.000172443 0)
(1.47969 -0.00016953 0)
(1.48001 -0.000166655 0)
(1.48034 -0.000163819 0)
(1.48066 -0.000161021 0)
(1.48097 -0.000158261 0)
(1.48128 -0.000155538 0)
(1.48159 -0.000152852 0)
(1.48189 -0.000150203 0)
(1.48219 -0.00014759 0)
(1.48248 -0.000145012 0)
(1.48277 -0.000142471 0)
(1.48306 -0.000139964 0)
(1.48334 -0.000137491 0)
(1.48362 -0.000135053 0)
(1.4839 -0.000132649 0)
(1.48417 -0.000130278 0)
(1.48443 -0.000127941 0)
(1.4847 -0.000125636 0)
(1.48495 -0.000123363 0)
(1.48521 -0.000121122 0)
(1.48546 -0.000118913 0)
(1.48571 -0.000116735 0)
(1.48595 -0.000114587 0)
(1.4862 -0.000112469 0)
(1.48643 -0.000110381 0)
(1.48667 -0.000108322 0)
(1.4869 -0.000106292 0)
(1.48712 -0.000104291 0)
(1.48735 -0.000102317 0)
(1.48757 -0.000100371 0)
(1.48778 -9.84514e-05 0)
(1.488 -9.65584e-05 0)
(1.48821 -9.46913e-05 0)
(1.48842 -9.28498e-05 0)
(1.48862 -9.1033e-05 0)
(1.48882 -8.92407e-05 0)
(1.48902 -8.74722e-05 0)
(1.48921 -8.57271e-05 0)
(1.4894 -8.40046e-05 0)
(1.48959 -8.23044e-05 0)
(1.48977 -8.06259e-05 0)
(1.48995 -7.89684e-05 0)
(1.49013 -7.73315e-05 0)
(1.49031 -7.57145e-05 0)
(1.49048 -7.41168e-05 0)
(1.49065 -7.25379e-05 0)
(1.49082 -7.09773e-05 0)
(1.49098 -6.94343e-05 0)
(1.49114 -6.79083e-05 0)
(1.4913 -6.63989e-05 0)
(1.49145 -6.49054e-05 0)
(1.4916 -6.34273e-05 0)
(1.49175 -6.19641e-05 0)
(1.4919 -6.05153e-05 0)
(1.49204 -5.90804e-05 0)
(1.49218 -5.76588e-05 0)
(1.49232 -5.62501e-05 0)
(1.49245 -5.4854e-05 0)
(1.49258 -5.347e-05 0)
(1.49271 -5.20977e-05 0)
(1.49284 -5.07369e-05 0)
(1.49296 -4.93872e-05 0)
(1.49308 -4.80484e-05 0)
(1.4932 -4.67203e-05 0)
(1.49331 -4.54027e-05 0)
(1.49343 -4.40956e-05 0)
(1.49353 -4.27989e-05 0)
(1.49364 -4.15125e-05 0)
(1.49374 -4.02366e-05 0)
(1.49384 -3.89713e-05 0)
(1.49394 -3.77167e-05 0)
(1.49404 -3.64731e-05 0)
(1.49413 -3.52408e-05 0)
(1.49422 -3.402e-05 0)
(1.4943 -3.28114e-05 0)
(1.49439 -3.16152e-05 0)
(1.49447 -3.04321e-05 0)
(1.49454 -2.92626e-05 0)
(1.49462 -2.81073e-05 0)
(1.49469 -2.69669e-05 0)
(1.49476 -2.58422e-05 0)
(1.49483 -2.4734e-05 0)
(1.49489 -2.36428e-05 0)
(1.49495 -2.25697e-05 0)
(1.49501 -2.15155e-05 0)
(1.49507 -2.0481e-05 0)
(1.49512 -1.94671e-05 0)
(1.49518 -1.84746e-05 0)
(1.49522 -1.75045e-05 0)
(1.49527 -1.65576e-05 0)
(1.49532 -1.56347e-05 0)
(1.49536 -1.47367e-05 0)
(1.4954 -1.38642e-05 0)
(1.49543 -1.30182e-05 0)
(1.49547 -1.21991e-05 0)
(1.4955 -1.14076e-05 0)
(1.49553 -1.06444e-05 0)
(1.49556 -9.90992e-06 0)
(1.49559 -9.20451e-06 0)
(1.49561 -8.52857e-06 0)
(1.49564 -7.88232e-06 0)
(1.49566 -7.26595e-06 0)
(1.49568 -6.67954e-06 0)
(1.4957 -6.12299e-06 0)
(1.49571 -5.59628e-06 0)
(1.49573 -5.09914e-06 0)
(1.49574 -4.63128e-06 0)
(1.49576 -4.19223e-06 0)
(1.49577 -3.78156e-06 0)
(1.49578 -3.39866e-06 0)
(1.49579 -3.04282e-06 0)
(1.4958 -2.71333e-06 0)
(1.4958 -2.40934e-06 0)
(1.49581 -2.12993e-06 0)
(1.49582 -1.87411e-06 0)
(1.49582 -1.64095e-06 0)
(1.49583 -1.42929e-06 0)
(1.49583 -1.23807e-06 0)
(1.49583 -1.06612e-06 0)
(1.49584 -9.1228e-07 0)
(1.49584 -7.75431e-07 0)
(1.49584 -6.5435e-07 0)
(1.49584 -5.47865e-07 0)
(1.49585 -4.54848e-07 0)
(1.49585 -3.74115e-07 0)
(1.49585 -3.04585e-07 0)
(1.49585 -2.45191e-07 0)
(1.49585 -1.94845e-07 0)
(1.49585 -1.52633e-07 0)
(1.49585 -1.17562e-07 0)
(1.49585 -8.87752e-08 0)
(1.49585 -6.54774e-08 0)
(1.49585 -4.68869e-08 0)
(1.49585 -3.22489e-08 0)
(1.49585 -2.10431e-08 0)
(1.49585 -1.26598e-08 0)
(1.49585 -6.56112e-09 0)
(1.49585 -2.30337e-09 0)
(1.49585 4.49262e-10 0)
(1.49585 2.06358e-09 0)
(1.49585 2.81545e-09 0)
(1.49585 2.91843e-09 0)
(1.49585 2.63467e-09 0)
(1.49585 2.01813e-09 0)
(1.49585 1.25202e-09 0)
(1.49585 4.44199e-10 0)
(1.49585 -3.51585e-10 0)
(1.49585 -1.13825e-09 0)
(1.49585 -1.7997e-09 0)
(1.49585 -2.36563e-09 0)
(1.49585 -2.88342e-09 0)
(1.49585 -3.25251e-09 0)
(1.49585 -3.54329e-09 0)
(1.49585 -3.73366e-09 0)
(1.49585 -3.82028e-09 0)
(1.49585 -3.95403e-09 0)
(1.49585 -3.93096e-09 0)
(1.49585 -3.86456e-09 0)
(1.49585 -3.87245e-09 0)
(1.49585 -3.77188e-09 0)
(1.49585 -3.67324e-09 0)
(1.49585 -3.62957e-09 0)
(1.49585 -3.4632e-09 0)
(1.49585 -3.43522e-09 0)
(1.49585 -3.32763e-09 0)
(1.49585 -3.26442e-09 0)
(1.49585 -3.18079e-09 0)
(1.49585 -3.10215e-09 0)
(1.49585 -3.06411e-09 0)
(1.49585 -2.98147e-09 0)
(1.49585 -2.92914e-09 0)
(1.49585 -2.87128e-09 0)
(1.49585 -2.86822e-09 0)
(1.49585 -2.7614e-09 0)
(1.49585 -2.69606e-09 0)
(1.49585 -2.69035e-09 0)
(1.49585 -2.63086e-09 0)
(1.49585 -2.55615e-09 0)
(1.49585 -2.51872e-09 0)
(1.49585 -2.46831e-09 0)
(1.49585 -2.4174e-09 0)
(1.49585 -2.36668e-09 0)
(1.49585 -2.28388e-09 0)
(1.49585 -2.28037e-09 0)
(1.49585 -2.18885e-09 0)
(1.49585 -2.15422e-09 0)
(1.49585 -2.11038e-09 0)
(1.49585 -2.03541e-09 0)
(1.49585 -1.97026e-09 0)
(1.49585 -2.00322e-09 0)
(1.49585 -1.89559e-09 0)
(1.49585 -1.89294e-09 0)
(1.49585 -1.83528e-09 0)
(1.49585 -1.79688e-09 0)
(1.49585 -1.7482e-09 0)
(1.49585 -1.75416e-09 0)
(1.49585 -1.68024e-09 0)
(1.49585 -1.70279e-09 0)
(1.49585 -1.64124e-09 0)
(1.49585 -1.62904e-09 0)
(1.49585 -1.59056e-09 0)
(1.49585 -1.5911e-09 0)
(1.49585 -1.54174e-09 0)
(1.49585 -1.50484e-09 0)
(1.49585 -1.49001e-09 0)
(1.49585 -1.41711e-09 0)
(1.49585 -1.43152e-09 0)
(1.49585 -1.37407e-09 0)
(1.49585 -1.35064e-09 0)
(1.49585 -1.29669e-09 0)
(1.49585 -1.32597e-09 0)
(1.49585 -1.27833e-09 0)
(1.49585 -1.24408e-09 0)
(1.49585 -1.24682e-09 0)
(1.49585 -1.2131e-09 0)
(1.49585 -1.21052e-09 0)
(1.49585 -1.16183e-09 0)
(1.49585 -1.14329e-09 0)
(1.49585 -1.12309e-09 0)
(1.49585 -1.17709e-09 0)
(1.49585 -1.07382e-09 0)
(1.49585 -1.13799e-09 0)
(1.49585 -1.05038e-09 0)
(1.49585 -1.08745e-09 0)
(1.49585 -1.03035e-09 0)
(1.49585 -1.07319e-09 0)
(1.49585 -1.03755e-09 0)
(1.49585 -1.02243e-09 0)
(1.49585 -9.60491e-10 0)
(1.49585 -1.00249e-09 0)
(1.49585 -9.9406e-10 0)
(1.49585 -9.14319e-10 0)
(1.49585 -9.74e-10 0)
(1.49585 -9.73354e-10 0)
(1.49585 -8.82356e-10 0)
(1.49585 -9.35813e-10 0)
(1.49585 -9.1915e-10 0)
(1.49585 -9.4744e-10 0)
(1.49585 -8.48218e-10 0)
(1.49585 -8.76863e-10 0)
(1.49585 -8.51147e-10 0)
(1.49585 -7.94542e-10 0)
(1.49585 -8.22213e-10 0)
(1.49585 -7.16305e-10 0)
(1.49585 -6.19422e-10 0)
(1.49585 -5.37327e-10 0)
(1.49585 -3.65415e-10 0)
(1.49585 -2.70391e-10 0)
(1.49585 1.26533e-10 0)
(1.00001 -0.000165028 0)
(1.00006 -0.000496282 0)
(1.00017 -0.00082889 0)
(1.00035 -0.00116233 0)
(1.00059 -0.00149611 0)
(1.00089 -0.00182973 0)
(1.00125 -0.00216271 0)
(1.00167 -0.00249454 0)
(1.00215 -0.00282472 0)
(1.00269 -0.00315276 0)
(1.0033 -0.00347815 0)
(1.00397 -0.00380041 0)
(1.00469 -0.00411907 0)
(1.00548 -0.00443365 0)
(1.00633 -0.0047437 0)
(1.00725 -0.00504877 0)
(1.00822 -0.00534846 0)
(1.00925 -0.00564234 0)
(1.01033 -0.00593005 0)
(1.01148 -0.00621121 0)
(1.01268 -0.00648549 0)
(1.01394 -0.00675257 0)
(1.01525 -0.00701217 0)
(1.01662 -0.00726402 0)
(1.01804 -0.00750788 0)
(1.01951 -0.00774354 0)
(1.02103 -0.00797082 0)
(1.0226 -0.00818957 0)
(1.02422 -0.00839965 0)
(1.02588 -0.00860096 0)
(1.02758 -0.00879342 0)
(1.02933 -0.00897699 0)
(1.03113 -0.00915163 0)
(1.03296 -0.00931735 0)
(1.03483 -0.00947417 0)
(1.03673 -0.00962212 0)
(1.03868 -0.00976127 0)
(1.04065 -0.00989172 0)
(1.04266 -0.0100135 0)
(1.0447 -0.0101269 0)
(1.04677 -0.0102319 0)
(1.04887 -0.0103286 0)
(1.05099 -0.0104174 0)
(1.05314 -0.0104982 0)
(1.05531 -0.0105714 0)
(1.0575 -0.0106371 0)
(1.05972 -0.0106955 0)
(1.06195 -0.0107469 0)
(1.0642 -0.0107914 0)
(1.06647 -0.0108293 0)
(1.06876 -0.0108608 0)
(1.07106 -0.0108861 0)
(1.07337 -0.0109054 0)
(1.07569 -0.0109191 0)
(1.07802 -0.0109273 0)
(1.08037 -0.0109302 0)
(1.08272 -0.0109281 0)
(1.08508 -0.0109213 0)
(1.08745 -0.0109099 0)
(1.08982 -0.0108941 0)
(1.0922 -0.0108742 0)
(1.09458 -0.0108505 0)
(1.09696 -0.010823 0)
(1.09935 -0.0107921 0)
(1.10174 -0.0107578 0)
(1.10413 -0.0107205 0)
(1.10651 -0.0106803 0)
(1.1089 -0.0106374 0)
(1.11129 -0.0105919 0)
(1.11368 -0.010544 0)
(1.11606 -0.010494 0)
(1.11844 -0.0104419 0)
(1.12082 -0.0103879 0)
(1.1232 -0.0103322 0)
(1.12557 -0.0102749 0)
(1.12793 -0.0102161 0)
(1.13029 -0.010156 0)
(1.13265 -0.0100947 0)
(1.135 -0.0100323 0)
(1.13734 -0.00996888 0)
(1.13968 -0.0099046 0)
(1.14201 -0.00983955 0)
(1.14434 -0.00977381 0)
(1.14665 -0.00970749 0)
(1.14896 -0.00964066 0)
(1.15127 -0.00957341 0)
(1.15356 -0.00950581 0)
(1.15585 -0.00943793 0)
(1.15813 -0.00936983 0)
(1.1604 -0.00930159 0)
(1.16266 -0.00923326 0)
(1.16492 -0.00916489 0)
(1.16716 -0.00909653 0)
(1.1694 -0.00902824 0)
(1.17163 -0.00896004 0)
(1.17385 -0.00889199 0)
(1.17606 -0.00882412 0)
(1.17826 -0.00875647 0)
(1.18046 -0.00868906 0)
(1.18264 -0.00862192 0)
(1.18482 -0.00855509 0)
(1.18698 -0.00848857 0)
(1.18914 -0.0084224 0)
(1.19129 -0.00835659 0)
(1.19343 -0.00829117 0)
(1.19556 -0.00822613 0)
(1.19768 -0.0081615 0)
(1.19979 -0.00809729 0)
(1.2019 -0.00803351 0)
(1.20399 -0.00797016 0)
(1.20608 -0.00790725 0)
(1.20815 -0.0078448 0)
(1.21022 -0.00778279 0)
(1.21228 -0.00772124 0)
(1.21432 -0.00766014 0)
(1.21636 -0.0075995 0)
(1.21839 -0.00753932 0)
(1.22042 -0.00747959 0)
(1.22243 -0.00742032 0)
(1.22443 -0.00736151 0)
(1.22643 -0.00730314 0)
(1.22841 -0.00724522 0)
(1.23039 -0.00718774 0)
(1.23236 -0.00713069 0)
(1.23432 -0.00707409 0)
(1.23627 -0.00701791 0)
(1.23821 -0.00696215 0)
(1.24014 -0.00690681 0)
(1.24207 -0.00685188 0)
(1.24398 -0.00679735 0)
(1.24589 -0.00674322 0)
(1.24779 -0.00668949 0)
(1.24968 -0.00663614 0)
(1.25156 -0.00658317 0)
(1.25343 -0.00653057 0)
(1.25529 -0.00647833 0)
(1.25715 -0.00642646 0)
(1.259 -0.00637494 0)
(1.26083 -0.00632376 0)
(1.26266 -0.00627292 0)
(1.26448 -0.00622242 0)
(1.2663 -0.00617224 0)
(1.2681 -0.00612239 0)
(1.2699 -0.00607285 0)
(1.27168 -0.00602361 0)
(1.27346 -0.00597468 0)
(1.27523 -0.00592605 0)
(1.277 -0.00587771 0)
(1.27875 -0.00582965 0)
(1.28049 -0.00578188 0)
(1.28223 -0.00573438 0)
(1.28396 -0.00568716 0)
(1.28568 -0.0056402 0)
(1.28739 -0.00559351 0)
(1.28909 -0.00554707 0)
(1.29079 -0.00550089 0)
(1.29248 -0.00545497 0)
(1.29416 -0.00540928 0)
(1.29583 -0.00536385 0)
(1.29749 -0.00531865 0)
(1.29914 -0.00527369 0)
(1.30079 -0.00522896 0)
(1.30242 -0.00518447 0)
(1.30405 -0.00514021 0)
(1.30567 -0.00509617 0)
(1.30728 -0.00505236 0)
(1.30889 -0.00500877 0)
(1.31048 -0.0049654 0)
(1.31207 -0.00492225 0)
(1.31365 -0.00487932 0)
(1.31522 -0.00483661 0)
(1.31678 -0.00479411 0)
(1.31833 -0.00475182 0)
(1.31988 -0.00470974 0)
(1.32141 -0.00466788 0)
(1.32294 -0.00462623 0)
(1.32446 -0.00458478 0)
(1.32597 -0.00454355 0)
(1.32748 -0.00450253 0)
(1.32897 -0.00446171 0)
(1.33046 -0.0044211 0)
(1.33194 -0.0043807 0)
(1.33341 -0.0043405 0)
(1.33487 -0.00430052 0)
(1.33632 -0.00426074 0)
(1.33777 -0.00422116 0)
(1.3392 -0.0041818 0)
(1.34063 -0.00414264 0)
(1.34205 -0.00410369 0)
(1.34346 -0.00406495 0)
(1.34486 -0.00402641 0)
(1.34626 -0.00398809 0)
(1.34765 -0.00394997 0)
(1.34902 -0.00391206 0)
(1.35039 -0.00387437 0)
(1.35175 -0.00383688 0)
(1.35311 -0.0037996 0)
(1.35445 -0.00376254 0)
(1.35579 -0.00372568 0)
(1.35712 -0.00368904 0)
(1.35844 -0.00365261 0)
(1.35975 -0.00361639 0)
(1.36105 -0.00358039 0)
(1.36235 -0.0035446 0)
(1.36363 -0.00350903 0)
(1.36491 -0.00347367 0)
(1.36618 -0.00343853 0)
(1.36744 -0.0034036 0)
(1.36869 -0.00336889 0)
(1.36994 -0.0033344 0)
(1.37118 -0.00330012 0)
(1.3724 -0.00326606 0)
(1.37362 -0.00323222 0)
(1.37484 -0.0031986 0)
(1.37604 -0.0031652 0)
(1.37724 -0.00313202 0)
(1.37842 -0.00309906 0)
(1.3796 -0.00306632 0)
(1.38077 -0.0030338 0)
(1.38194 -0.0030015 0)
(1.38309 -0.00296942 0)
(1.38424 -0.00293756 0)
(1.38538 -0.00290593 0)
(1.38651 -0.00287451 0)
(1.38763 -0.00284332 0)
(1.38874 -0.00281235 0)
(1.38985 -0.0027816 0)
(1.39095 -0.00275107 0)
(1.39204 -0.00272077 0)
(1.39312 -0.00269069 0)
(1.39419 -0.00266083 0)
(1.39526 -0.00263119 0)
(1.39632 -0.00260177 0)
(1.39737 -0.00257258 0)
(1.39841 -0.00254361 0)
(1.39944 -0.00251486 0)
(1.40047 -0.00248633 0)
(1.40149 -0.00245802 0)
(1.4025 -0.00242993 0)
(1.4035 -0.00240207 0)
(1.4045 -0.00237442 0)
(1.40548 -0.00234699 0)
(1.40646 -0.00231979 0)
(1.40743 -0.0022928 0)
(1.4084 -0.00226603 0)
(1.40935 -0.00223948 0)
(1.4103 -0.00221315 0)
(1.41124 -0.00218704 0)
(1.41218 -0.00216114 0)
(1.4131 -0.00213546 0)
(1.41402 -0.00210999 0)
(1.41493 -0.00208474 0)
(1.41584 -0.00205971 0)
(1.41673 -0.00203489 0)
(1.41762 -0.00201028 0)
(1.4185 -0.00198589 0)
(1.41937 -0.00196171 0)
(1.42024 -0.00193774 0)
(1.4211 -0.00191398 0)
(1.42195 -0.00189043 0)
(1.42279 -0.00186709 0)
(1.42363 -0.00184396 0)
(1.42446 -0.00182104 0)
(1.42528 -0.00179832 0)
(1.4261 -0.00177581 0)
(1.42691 -0.00175351 0)
(1.42771 -0.00173141 0)
(1.4285 -0.00170951 0)
(1.42929 -0.00168782 0)
(1.43007 -0.00166633 0)
(1.43084 -0.00164504 0)
(1.43161 -0.00162395 0)
(1.43237 -0.00160306 0)
(1.43312 -0.00158237 0)
(1.43386 -0.00156188 0)
(1.4346 -0.00154158 0)
(1.43533 -0.00152148 0)
(1.43606 -0.00150157 0)
(1.43677 -0.00148186 0)
(1.43748 -0.00146234 0)
(1.43819 -0.00144301 0)
(1.43889 -0.00142387 0)
(1.43958 -0.00140492 0)
(1.44026 -0.00138616 0)
(1.44094 -0.00136759 0)
(1.44161 -0.0013492 0)
(1.44228 -0.001331 0)
(1.44293 -0.00131299 0)
(1.44359 -0.00129516 0)
(1.44423 -0.00127751 0)
(1.44487 -0.00126004 0)
(1.4455 -0.00124275 0)
(1.44613 -0.00122565 0)
(1.44675 -0.00120872 0)
(1.44736 -0.00119196 0)
(1.44797 -0.00117539 0)
(1.44857 -0.00115898 0)
(1.44917 -0.00114276 0)
(1.44976 -0.0011267 0)
(1.45034 -0.00111082 0)
(1.45092 -0.0010951 0)
(1.45149 -0.00107956 0)
(1.45206 -0.00106418 0)
(1.45262 -0.00104898 0)
(1.45317 -0.00103393 0)
(1.45372 -0.00101906 0)
(1.45426 -0.00100434 0)
(1.4548 -0.000989795 0)
(1.45533 -0.000975407 0)
(1.45585 -0.000961179 0)
(1.45637 -0.000947111 0)
(1.45688 -0.000933201 0)
(1.45739 -0.000919449 0)
(1.45789 -0.000905852 0)
(1.45839 -0.000892411 0)
(1.45888 -0.000879124 0)
(1.45937 -0.000865989 0)
(1.45985 -0.000853006 0)
(1.46032 -0.000840174 0)
(1.46079 -0.000827491 0)
(1.46125 -0.000814956 0)
(1.46171 -0.000802569 0)
(1.46217 -0.000790327 0)
(1.46262 -0.000778231 0)
(1.46306 -0.000766278 0)
(1.4635 -0.000754468 0)
(1.46393 -0.0007428 0)
(1.46436 -0.000731272 0)
(1.46478 -0.000719884 0)
(1.4652 -0.000708634 0)
(1.46561 -0.000697521 0)
(1.46602 -0.000686545 0)
(1.46642 -0.000675703 0)
(1.46682 -0.000664995 0)
(1.46722 -0.00065442 0)
(1.4676 -0.000643977 0)
(1.46799 -0.000633664 0)
(1.46837 -0.00062348 0)
(1.46874 -0.000613425 0)
(1.46911 -0.000603497 0)
(1.46948 -0.000593696 0)
(1.46984 -0.000584019 0)
(1.47019 -0.000574467 0)
(1.47055 -0.000565037 0)
(1.47089 -0.000555729 0)
(1.47124 -0.000546542 0)
(1.47158 -0.000537475 0)
(1.47191 -0.000528526 0)
(1.47224 -0.000519694 0)
(1.47257 -0.000510979 0)
(1.47289 -0.000502379 0)
(1.4732 -0.000493893 0)
(1.47352 -0.00048552 0)
(1.47383 -0.00047726 0)
(1.47413 -0.00046911 0)
(1.47443 -0.00046107 0)
(1.47473 -0.000453138 0)
(1.47502 -0.000445315 0)
(1.47531 -0.000437597 0)
(1.47559 -0.000429986 0)
(1.47588 -0.000422478 0)
(1.47615 -0.000415073 0)
(1.47643 -0.000407771 0)
(1.4767 -0.000400569 0)
(1.47696 -0.000393467 0)
(1.47722 -0.000386464 0)
(1.47748 -0.000379558 0)
(1.47774 -0.000372749 0)
(1.47799 -0.000366035 0)
(1.47824 -0.000359414 0)
(1.47848 -0.000352887 0)
(1.47872 -0.00034645 0)
(1.47896 -0.000340104 0)
(1.47919 -0.000333847 0)
(1.47942 -0.000327678 0)
(1.47965 -0.000321595 0)
(1.47987 -0.000315598 0)
(1.48009 -0.000309684 0)
(1.48031 -0.000303853 0)
(1.48052 -0.000298103 0)
(1.48073 -0.000292433 0)
(1.48094 -0.000286841 0)
(1.48114 -0.000281326 0)
(1.48134 -0.000275887 0)
(1.48154 -0.000270521 0)
(1.48174 -0.000265228 0)
(1.48193 -0.000260006 0)
(1.48212 -0.000254853 0)
(1.4823 -0.000249768 0)
(1.48248 -0.00024475 0)
(1.48266 -0.000239796 0)
(1.48284 -0.000234905 0)
(1.48301 -0.000230075 0)
(1.48318 -0.000225305 0)
(1.48335 -0.000220593 0)
(1.48351 -0.000215937 0)
(1.48368 -0.000211336 0)
(1.48384 -0.000206788 0)
(1.48399 -0.000202291 0)
(1.48414 -0.000197844 0)
(1.4843 -0.000193445 0)
(1.48444 -0.000189092 0)
(1.48459 -0.000184784 0)
(1.48473 -0.000180519 0)
(1.48487 -0.000176296 0)
(1.48501 -0.000172113 0)
(1.48514 -0.000167969 0)
(1.48527 -0.000163863 0)
(1.4854 -0.000159793 0)
(1.48552 -0.000155758 0)
(1.48565 -0.000151758 0)
(1.48577 -0.00014779 0)
(1.48588 -0.000143855 0)
(1.486 -0.000139952 0)
(1.48611 -0.00013608 0)
(1.48622 -0.000132238 0)
(1.48633 -0.000128427 0)
(1.48643 -0.000124646 0)
(1.48653 -0.000120895 0)
(1.48663 -0.000117175 0)
(1.48673 -0.000113486 0)
(1.48682 -0.000109828 0)
(1.48691 -0.000106201 0)
(1.487 -0.000102608 0)
(1.48708 -9.9049e-05 0)
(1.48716 -9.55249e-05 0)
(1.48724 -9.20373e-05 0)
(1.48732 -8.85878e-05 0)
(1.48739 -8.51781e-05 0)
(1.48747 -8.18101e-05 0)
(1.48753 -7.84857e-05 0)
(1.4876 -7.5207e-05 0)
(1.48766 -7.19762e-05 0)
(1.48773 -6.87958e-05 0)
(1.48778 -6.5668e-05 0)
(1.48784 -6.25954e-05 0)
(1.48789 -5.95805e-05 0)
(1.48795 -5.66258e-05 0)
(1.48799 -5.37339e-05 0)
(1.48804 -5.09072e-05 0)
(1.48809 -4.81484e-05 0)
(1.48813 -4.54598e-05 0)
(1.48817 -4.28439e-05 0)
(1.4882 -4.03027e-05 0)
(1.48824 -3.78386e-05 0)
(1.48827 -3.54534e-05 0)
(1.4883 -3.3149e-05 0)
(1.48833 -3.0927e-05 0)
(1.48836 -2.87889e-05 0)
(1.48839 -2.67358e-05 0)
(1.48841 -2.47687e-05 0)
(1.48843 -2.28883e-05 0)
(1.48845 -2.1095e-05 0)
(1.48847 -1.93892e-05 0)
(1.48849 -1.77706e-05 0)
(1.4885 -1.6239e-05 0)
(1.48852 -1.47935e-05 0)
(1.48853 -1.34334e-05 0)
(1.48854 -1.21574e-05 0)
(1.48856 -1.09641e-05 0)
(1.48857 -9.85167e-06 0)
(1.48857 -8.81811e-06 0)
(1.48858 -7.86124e-06 0)
(1.48859 -6.97859e-06 0)
(1.4886 -6.16756e-06 0)
(1.4886 -5.42525e-06 0)
(1.48861 -4.74871e-06 0)
(1.48861 -4.13483e-06 0)
(1.48861 -3.58034e-06 0)
(1.48862 -3.08192e-06 0)
(1.48862 -2.63621e-06 0)
(1.48862 -2.23975e-06 0)
(1.48863 -1.88911e-06 0)
(1.48863 -1.5809e-06 0)
(1.48863 -1.31173e-06 0)
(1.48863 -1.07826e-06 0)
(1.48863 -8.77276e-07 0)
(1.48863 -7.05608e-07 0)
(1.48863 -5.60246e-07 0)
(1.48863 -4.38392e-07 0)
(1.48863 -3.3727e-07 0)
(1.48863 -2.5433e-07 0)
(1.48863 -1.87182e-07 0)
(1.48863 -1.33639e-07 0)
(1.48863 -9.17113e-08 0)
(1.48863 -5.95541e-08 0)
(1.48863 -3.54837e-08 0)
(1.48863 -1.80691e-08 0)
(1.48863 -6.02276e-09 0)
(1.48863 1.75583e-09 0)
(1.48863 6.256e-09 0)
(1.48863 8.2917e-09 0)
(1.48863 8.53366e-09 0)
(1.48863 7.54987e-09 0)
(1.48863 5.76749e-09 0)
(1.48863 3.54973e-09 0)
(1.48863 1.13603e-09 0)
(1.48863 -1.21951e-09 0)
(1.48863 -3.42646e-09 0)
(1.48863 -5.41885e-09 0)
(1.48863 -7.11177e-09 0)
(1.48863 -8.49384e-09 0)
(1.48863 -9.56882e-09 0)
(1.48863 -1.03949e-08 0)
(1.48863 -1.09718e-08 0)
(1.48863 -1.12909e-08 0)
(1.48863 -1.14818e-08 0)
(1.48863 -1.14856e-08 0)
(1.48863 -1.13922e-08 0)
(1.48863 -1.12523e-08 0)
(1.48863 -1.10163e-08 0)
(1.48863 -1.07611e-08 0)
(1.48863 -1.05161e-08 0)
(1.48863 -1.01879e-08 0)
(1.48863 -9.95236e-09 0)
(1.48863 -9.66807e-09 0)
(1.48863 -9.43914e-09 0)
(1.48863 -9.18802e-09 0)
(1.48863 -8.96671e-09 0)
(1.48863 -8.81228e-09 0)
(1.48863 -8.60073e-09 0)
(1.48863 -8.40783e-09 0)
(1.48863 -8.24104e-09 0)
(1.48863 -8.096e-09 0)
(1.48863 -7.94126e-09 0)
(1.48863 -7.77943e-09 0)
(1.48863 -7.65138e-09 0)
(1.48863 -7.48677e-09 0)
(1.48863 -7.34765e-09 0)
(1.48863 -7.21092e-09 0)
(1.48863 -7.06335e-09 0)
(1.48863 -6.92477e-09 0)
(1.48863 -6.81473e-09 0)
(1.48863 -6.6559e-09 0)
(1.48863 -6.53325e-09 0)
(1.48863 -6.39518e-09 0)
(1.48863 -6.28555e-09 0)
(1.48863 -6.16542e-09 0)
(1.48863 -6.03203e-09 0)
(1.48863 -5.90994e-09 0)
(1.48863 -5.81209e-09 0)
(1.48863 -5.68216e-09 0)
(1.48863 -5.57755e-09 0)
(1.48863 -5.46909e-09 0)
(1.48863 -5.39584e-09 0)
(1.48863 -5.2522e-09 0)
(1.48863 -5.21127e-09 0)
(1.48863 -5.09175e-09 0)
(1.48863 -4.99659e-09 0)
(1.48863 -4.90973e-09 0)
(1.48863 -4.8431e-09 0)
(1.48863 -4.75843e-09 0)
(1.48863 -4.6746e-09 0)
(1.48863 -4.58772e-09 0)
(1.48863 -4.52966e-09 0)
(1.48863 -4.44566e-09 0)
(1.48863 -4.35905e-09 0)
(1.48863 -4.28362e-09 0)
(1.48863 -4.22037e-09 0)
(1.48863 -4.15714e-09 0)
(1.48863 -4.03802e-09 0)
(1.48863 -4.00468e-09 0)
(1.48863 -3.9374e-09 0)
(1.48863 -3.85931e-09 0)
(1.48863 -3.82279e-09 0)
(1.48863 -3.75019e-09 0)
(1.48863 -3.70895e-09 0)
(1.48863 -3.61319e-09 0)
(1.48863 -3.57232e-09 0)
(1.48863 -3.52944e-09 0)
(1.48863 -3.49454e-09 0)
(1.48863 -3.40303e-09 0)
(1.48863 -3.39811e-09 0)
(1.48863 -3.31374e-09 0)
(1.48863 -3.28923e-09 0)
(1.48863 -3.21465e-09 0)
(1.48863 -3.18862e-09 0)
(1.48863 -3.14866e-09 0)
(1.48863 -3.10254e-09 0)
(1.48863 -3.02783e-09 0)
(1.48863 -2.97146e-09 0)
(1.48863 -2.94936e-09 0)
(1.48863 -2.85903e-09 0)
(1.48863 -2.86877e-09 0)
(1.48863 -2.82918e-09 0)
(1.48863 -2.76528e-09 0)
(1.48863 -2.76296e-09 0)
(1.48863 -2.7107e-09 0)
(1.48863 -2.67734e-09 0)
(1.48863 -2.61697e-09 0)
(1.48863 -2.53237e-09 0)
(1.48863 -2.4674e-09 0)
(1.48863 -2.33661e-09 0)
(1.48863 -2.3129e-09 0)
(1.48863 -2.06439e-09 0)
(1.48863 -1.87452e-09 0)
(1.48863 -1.59027e-09 0)
(1.48863 -1.11027e-09 0)
(1.48863 -7.17661e-10 0)
(1.48863 3.54071e-10 0)
(1.00001 -0.000273701 0)
(1.00006 -0.000823101 0)
(1.00018 -0.00137475 0)
(1.00037 -0.00192775 0)
(1.00061 -0.00248128 0)