# Probe 0 (0 0 0)
#       Probe             0
#        Time
       0.0001       3.63148
       0.0002       4.76077
       0.0003       4.96759
       0.0004       4.57791
       0.0005       4.92158
       0.0006       4.90011
       0.0007       4.97759
       0.0008       5.03442
       0.0009       5.08213
        0.001       5.12563
       0.0011        5.1653
       0.0012       5.20177
       0.0013       5.23556
       0.0014       5.26711
       0.0015       5.29674
       0.0016       5.32471
       0.0017       5.35124
       0.0018       5.37648
       0.0019       5.40059
        0.002       5.42368
       0.0021       5.44584
       0.0022       5.46716
       0.0023       5.48772
       0.0024       5.50757
       0.0025       5.52676
       0.0026       5.54535
       0.0027       5.56336
       0.0028       5.58084
       0.0029       5.59781
        0.003       5.61432
       0.0031       5.63038
       0.0032       5.64603
       0.0033       5.66129
       0.0034       5.67617
       0.0035       5.69071
       0.0036        5.7049
       0.0037       5.71879
       0.0038       5.73237
       0.0039       5.74566
        0.004       5.75868
       0.0041       5.77144
       0.0042       5.78396
       0.0043       5.79623
       0.0044       5.80828
       0.0045        5.8201
       0.0046       5.83172
       0.0047       5.84314
       0.0048       5.85436
       0.0049        5.8654
        0.005       5.87626
       0.0051       5.88694
       0.0052       5.89746
       0.0053       5.90782
       0.0054       5.91802
       0.0055       5.92808
       0.0056       5.93799
       0.0057       5.94776
       0.0058       5.95739
       0.0059       5.96689
        0.006       5.97626
       0.0061       5.98551
       0.0062       5.99464
       0.0063       6.00366
       0.0064       6.01256
       0.0065       6.02135
       0.0066       6.03003
       0.0067       6.03861
       0.0068       6.04708
       0.0069       6.05546
        0.007       6.06374
       0.0071       6.07192
       0.0072       6.08001
       0.0073       6.08802
       0.0074       6.09593
       0.0075       6.10376
       0.0076       6.11151
       0.0077       6.11917
       0.0078       6.12675
       0.0079       6.13426
        0.008       6.14168
       0.0081       6.14904
       0.0082       6.15632
       0.0083       6.16352
       0.0084       6.17066
       0.0085       6.17772
       0.0086       6.18472
       0.0087       6.19165
       0.0088       6.19851
       0.0089       6.20531
        0.009       6.21205
       0.0091       6.21873
       0.0092       6.22534
       0.0093       6.23189
       0.0094       6.23839
       0.0095       6.24482
       0.0096        6.2512
       0.0097       6.25753
       0.0098       6.26379
       0.0099       6.27001
         0.01       6.27617
       0.0101       6.28227
       0.0102       6.28833
       0.0103       6.29433
       0.0104       6.30029
       0.0105       6.30619
       0.0106       6.31205
       0.0107       6.31785
       0.0108       6.32361
       0.0109       6.32932
        0.011       6.33499
       0.0111       6.34061
       0.0112       6.34619
       0.0113       6.35172
       0.0114       6.35721
       0.0115       6.36266
       0.0116       6.36806
       0.0117       6.37342
       0.0118       6.37874
       0.0119       6.38402
        0.012       6.38926
       0.0121       6.39445
       0.0122       6.39961
       0.0123       6.40473
       0.0124       6.40982
       0.0125       6.41486
       0.0126       6.41987
       0.0127       6.42484
       0.0128       6.42977
       0.0129       6.43467
        0.013       6.43953
       0.0131       6.44435
       0.0132       6.44914
       0.0133        6.4539
       0.0134       6.45862
       0.0135       6.46331
       0.0136       6.46797
       0.0137       6.47259
       0.0138       6.47718
       0.0139       6.48173
        0.014       6.48626
       0.0141       6.49075
       0.0142       6.49521
       0.0143       6.49964
       0.0144       6.50404
       0.0145       6.50841
       0.0146       6.51275
       0.0147       6.51706
       0.0148       6.52134
       0.0149       6.52559
        0.015       6.52981
       0.0151       6.53401
       0.0152       6.53817
       0.0153       6.54231
       0.0154       6.54641
       0.0155        6.5505
       0.0156       6.55455
       0.0157       6.55858
       0.0158       6.56258
       0.0159       6.56655
        0.016        6.5705
       0.0161       6.57442
       0.0162       6.57831
       0.0163       6.58218
       0.0164       6.58602
       0.0165       6.58984
       0.0166       6.59363
       0.0167        6.5974
       0.0168       6.60115
       0.0169       6.60486
        0.017       6.60856
       0.0171       6.61223
       0.0172       6.61588
       0.0173        6.6195
       0.0174        6.6231
       0.0175       6.62668
       0.0176       6.63024
       0.0177       6.63377
       0.0178       6.63728
       0.0179       6.64076
        0.018       6.64423
       0.0181       6.64767
       0.0182       6.65109
       0.0183       6.65449
       0.0184       6.65787
       0.0185       6.66123
       0.0186       6.66456
       0.0187       6.66788
       0.0188       6.67117
       0.0189       6.67444
        0.019        6.6777
       0.0191       6.68093
       0.0192       6.68414
       0.0193       6.68734
       0.0194       6.69051
       0.0195       6.69367
       0.0196        6.6968
       0.0197       6.69992
       0.0198       6.70302
       0.0199       6.70609
         0.02       6.70915
       0.0201       6.71219
       0.0202       6.71521
       0.0203       6.71821
       0.0204       6.72119
       0.0205       6.72415
       0.0206        6.7271
       0.0207       6.73002
       0.0208       6.73292
       0.0209       6.73581
        0.021       6.73867
       0.0211       6.74152
       0.0212       6.74434
       0.0213       6.74715
       0.0214       6.74994
       0.0215        6.7527
       0.0216       6.75545
       0.0217       6.75818
       0.0218       6.76089
       0.0219       6.76359
        0.022       6.76626
       0.0221       6.76892
       0.0222       6.77155
       0.0223       6.77417
       0.0224       6.77677
       0.0225       6.77935
       0.0226       6.78192
       0.0227       6.78446
       0.0228       6.78699
       0.0229        6.7895
        0.023       6.79199
       0.0231       6.79447
       0.0232       6.79693
       0.0233       6.79937
       0.0234       6.80179
       0.0235        6.8042
       0.0236       6.80659
       0.0237       6.80897
       0.0238       6.81133
       0.0239       6.81367
        0.024         6.816
       0.0241       6.81831
       0.0242       6.82061
       0.0243       6.82289
       0.0244       6.82515
       0.0245        6.8274
       0.0246       6.82964
       0.0247       6.83186
       0.0248       6.83406
       0.0249       6.83626
        0.025       6.83843
       0.0251       6.84059
       0.0252       6.84274
       0.0253       6.84487
       0.0254       6.84699
       0.0255        6.8491
       0.0256       6.85119
       0.0257       6.85327
       0.0258       6.85533
       0.0259       6.85738
        0.026       6.85942
       0.0261       6.86145
       0.0262       6.86346
       0.0263       6.86545
       0.0264       6.86744
       0.0265       6.86941
       0.0266       6.87137
       0.0267       6.87331
       0.0268       6.87525
       0.0269       6.87717
        0.027       6.87908
       0.0271       6.88097
       0.0272       6.88285
       0.0273       6.88472
       0.0274       6.88658
       0.0275       6.88843
       0.0276       6.89026
       0.0277       6.89209
       0.0278        6.8939
       0.0279        6.8957
        0.028       6.89748
       0.0281       6.89926
       0.0282       6.90102
       0.0283       6.90277
       0.0284       6.90452
       0.0285       6.90624
       0.0286       6.90796
       0.0287       6.90967
       0.0288       6.91137
       0.0289       6.91305
        0.029       6.91472
       0.0291       6.91639
       0.0292       6.91804
       0.0293       6.91968
       0.0294       6.92131
       0.0295       6.92293
       0.0296       6.92454
       0.0297       6.92613
       0.0298       6.92772
       0.0299        6.9293
         0.03       6.93086
       0.0301       6.93242
       0.0302       6.93397
       0.0303        6.9355
       0.0304       6.93703
       0.0305       6.93854
       0.0306       6.94005
       0.0307       6.94154
       0.0308       6.94303
       0.0309        6.9445
        0.031       6.94597
       0.0311       6.94742
       0.0312       6.94887
       0.0313        6.9503
       0.0314       6.95173
       0.0315       6.95314
       0.0316       6.95455
       0.0317       6.95595
       0.0318       6.95734
       0.0319       6.95873
        0.032       6.96008
       0.0321       6.96144
       0.0322       6.96278
       0.0323       6.96412
       0.0324       6.96544
       0.0325       6.96676
       0.0326       6.96806
       0.0327       6.96936
       0.0328       6.97064
       0.0329       6.97191
        0.033       6.97318
       0.0331       6.97443
       0.0332       6.97567
       0.0333        6.9769
       0.0334       6.97813
       0.0335       6.97934
       0.0336       6.98054
       0.0337       6.98174
       0.0338       6.98292
       0.0339       6.98409
        0.034       6.98526
       0.0341       6.98641
       0.0342       6.98756
       0.0343       6.98869
       0.0344       6.98982
       0.0345       6.99094
       0.0346       6.99205
       0.0347       6.99315
       0.0348       6.99424
       0.0349       6.99532
        0.035       6.99639
       0.0351       6.99745
       0.0352       6.99851
       0.0353       6.99955
       0.0354       7.00059
       0.0355       7.00162
       0.0356       7.00264
       0.0357       7.00365
       0.0358       7.00466
       0.0359       7.00565
        0.036       7.00664
       0.0361       7.00762
       0.0362       7.00859
       0.0363       7.00955
       0.0364        7.0105
       0.0365       7.01145
       0.0366       7.01239
       0.0367       7.01332
       0.0368       7.01425
       0.0369       7.01516
        0.037       7.01607
       0.0371       7.01697
       0.0372       7.01786
       0.0373       7.01875
       0.0374       7.01963
       0.0375        7.0205
       0.0376       7.02137
       0.0377       7.02222
       0.0378       7.02307
       0.0379       7.02392
        0.038       7.02475
       0.0381       7.02558
       0.0382        7.0264
       0.0383       7.02722
       0.0384       7.02802
       0.0385       7.02882
       0.0386       7.02962
       0.0387        7.0304
       0.0388       7.03118
       0.0389       7.03196
        0.039       7.03272
       0.0391       7.03348
       0.0392       7.03423
       0.0393       7.03498
       0.0394       7.03571
       0.0395       7.03644
       0.0396       7.03717
       0.0397       7.03788
       0.0398       7.03859
       0.0399        7.0393
         0.04       7.03999
       0.0401       7.04068
       0.0402       7.04137
       0.0403       7.04204
       0.0404       7.04271
       0.0405       7.04338
       0.0406       7.04403
       0.0407       7.04468
       0.0408       7.04533
       0.0409       7.04596
        0.041       7.04659
       0.0411       7.04722
       0.0412       7.04784
       0.0413       7.04845
       0.0414       7.04905
       0.0415       7.04965
       0.0416       7.05025
       0.0417       7.05083
       0.0418       7.05141
       0.0419       7.05199
        0.042       7.05256
       0.0421       7.05312
       0.0422       7.05368
       0.0423       7.05423
       0.0424       7.05477
       0.0425       7.05532
       0.0426       7.05585
       0.0427       7.05638
       0.0428        7.0569
       0.0429       7.05742
        0.043       7.05793
       0.0431       7.05844
       0.0432       7.05894
       0.0433       7.05944
       0.0434       7.05993
       0.0435       7.06041
       0.0436        7.0609
       0.0437       7.06137
       0.0438       7.06184
       0.0439       7.06231
        0.044       7.06277
       0.0441       7.06322
       0.0442       7.06368
       0.0443       7.06412
       0.0444       7.06456
       0.0445         7.065
       0.0446       7.06543
       0.0447       7.06586
       0.0448       7.06628
       0.0449        7.0667
        0.045       7.06712
       0.0451       7.06753
       0.0452       7.06793
       0.0453       7.06833
       0.0454       7.06873
       0.0455       7.06912
       0.0456       7.06951
       0.0457        7.0699
       0.0458       7.07028
       0.0459       7.07065
        0.046       7.07103
       0.0461       7.07139
       0.0462       7.07176
       0.0463       7.07212
       0.0464       7.07247
       0.0465       7.07282
       0.0466       7.07317
       0.0467       7.07351
       0.0468       7.07384
       0.0469       7.07418
        0.047        7.0745
       0.0471       7.07483
       0.0472       7.07515
       0.0473       7.07546
       0.0474       7.07578
       0.0475       7.07608
       0.0476       7.07639
       0.0477       7.07669
       0.0478       7.07698
       0.0479       7.07728
        0.048       7.07756
       0.0481       7.07785
       0.0482       7.07813
       0.0483        7.0784
       0.0484       7.07868
       0.0485       7.07895
       0.0486       7.07921
       0.0487       7.07947
       0.0488       7.07973
       0.0489       7.07998
        0.049       7.08022
       0.0491       7.08046
       0.0492       7.08069
       0.0493       7.08092
       0.0494       7.08114
       0.0495       7.08135
       0.0496       7.08156
       0.0497       7.08176
       0.0498       7.08195
       0.0499       7.08214
         0.05       7.08233
       0.0501       7.08251
       0.0502       7.08268
       0.0503       7.08285
       0.0504       7.08301
       0.0505       7.08316
       0.0506       7.08331
       0.0507       7.08346
       0.0508        7.0836
       0.0509       7.08374
        0.051       7.08387
       0.0511       7.08399
       0.0512       7.08411
       0.0513       7.08423
       0.0514       7.08434
       0.0515       7.08444
       0.0516       7.08454
       0.0517       7.08464
       0.0518       7.08473
       0.0519       7.08482
        0.052        7.0849
       0.0521       7.08498
       0.0522       7.08505
       0.0523       7.08512
       0.0524       7.08518
       0.0525       7.08524
       0.0526        7.0853
       0.0527       7.08535
       0.0528        7.0854
       0.0529       7.08545
        0.053       7.08549
       0.0531       7.08552
       0.0532       7.08556
       0.0533       7.08558
       0.0534       7.08561
       0.0535       7.08563
       0.0536       7.08565
       0.0537       7.08566
       0.0538       7.08567
       0.0539       7.08568
        0.054       7.08569
       0.0541       7.08569
       0.0542       7.08568
       0.0543       7.08568
       0.0544       7.08567
       0.0545       7.08566
       0.0546       7.08564
       0.0547       7.08562
       0.0548        7.0856
       0.0549       7.08557
        0.055       7.08555
       0.0551       7.08551
       0.0552       7.08548
       0.0553       7.08544
       0.0554        7.0854
       0.0555       7.08536
       0.0556       7.08532
       0.0557       7.08527
       0.0558       7.08522
       0.0559       7.08516
        0.056       7.08511
       0.0561       7.08505
       0.0562       7.08498
       0.0563       7.08492
       0.0564       7.08485
       0.0565       7.08478
       0.0566       7.08471
       0.0567       7.08464
       0.0568       7.08456
       0.0569       7.08448
        0.057        7.0844
       0.0571       7.08432
       0.0572       7.08423
       0.0573       7.08414
       0.0574       7.08405
       0.0575       7.08395
       0.0576       7.08386
       0.0577       7.08376
       0.0578       7.08366
       0.0579       7.08356
        0.058       7.08345
       0.0581       7.08335
       0.0582       7.08324
       0.0583       7.08313
       0.0584       7.08301
       0.0585        7.0829
       0.0586       7.08278
       0.0587       7.08266
       0.0588       7.08254
       0.0589       7.08241
        0.059       7.08229
       0.0591       7.08216
       0.0592       7.08203
       0.0593        7.0819
       0.0594       7.08176
       0.0595       7.08163
       0.0596       7.08149
       0.0597       7.08135
       0.0598       7.08121
       0.0599       7.08107
         0.06       7.08092
       0.0601       7.08077
       0.0602       7.08062
       0.0603       7.08047
       0.0604       7.08032
       0.0605       7.08017
       0.0606       7.08001
       0.0607       7.07985
       0.0608       7.07969
       0.0609       7.07953
        0.061       7.07937
       0.0611        7.0792
       0.0612       7.07903
       0.0613       7.07886
       0.0614       7.07869
       0.0615       7.07852
       0.0616       7.07835
       0.0617       7.07817
       0.0618       7.07799
       0.0619       7.07781
        0.062       7.07763
       0.0621       7.07745
       0.0622       7.07727
       0.0623       7.07708
       0.0624       7.07689
       0.0625        7.0767
       0.0626       7.07651
       0.0627       7.07632
       0.0628       7.07613
       0.0629       7.07593
        0.063       7.07573
       0.0631       7.07553
       0.0632       7.07533
       0.0633       7.07513
       0.0634       7.07493
       0.0635       7.07472
       0.0636       7.07451
       0.0637       7.07431
       0.0638        7.0741
       0.0639       7.07389
        0.064       7.07367
       0.0641       7.07346
       0.0642       7.07324
       0.0643       7.07302
       0.0644       7.07281
       0.0645       7.07259
       0.0646       7.07236
       0.0647       7.07214
       0.0648       7.07192
       0.0649       7.07169
        0.065       7.07146
       0.0651       7.07123
       0.0652         7.071
       0.0653       7.07077
       0.0654       7.07054
       0.0655        7.0703
       0.0656       7.07006
       0.0657       7.06983
       0.0658       7.06959
       0.0659       7.06935
        0.066       7.06911
       0.0661       7.06886
       0.0662       7.06862
       0.0663       7.06837
       0.0664       7.06812
       0.0665       7.06787
       0.0666       7.06762
       0.0667       7.06737
       0.0668       7.06712
       0.0669       7.06687
        0.067       7.06661
       0.0671       7.06635
       0.0672        7.0661
       0.0673       7.06584
       0.0674       7.06558
       0.0675       7.06531
       0.0676       7.06505
       0.0677       7.06479
       0.0678       7.06452
       0.0679       7.06425
        0.068       7.06398
       0.0681       7.06372
       0.0682       7.06344
       0.0683       7.06317
       0.0684        7.0629
       0.0685       7.06262
       0.0686       7.06235
       0.0687       7.06207
       0.0688       7.06179
       0.0689       7.06151
        0.069       7.06123
       0.0691       7.06095
       0.0692       7.06067
       0.0693       7.06038
       0.0694        7.0601
       0.0695       7.05981
       0.0696       7.05952
       0.0697       7.05923
       0.0698       7.05894
       0.0699       7.05865
         0.07       7.05836
       0.0701       7.05806
       0.0702       7.05777
       0.0703       7.05747
       0.0704       7.05718
       0.0705       7.05688
       0.0706       7.05658
       0.0707       7.05628
       0.0708       7.05598
       0.0709       7.05567
        0.071       7.05537
       0.0711       7.05506
       0.0712       7.05476
       0.0713       7.05445
       0.0714       7.05414
       0.0715       7.05383
       0.0716       7.05352
       0.0717       7.05321
       0.0718        7.0529
       0.0719       7.05258
        0.072       7.05227
       0.0721       7.05195
       0.0722       7.05163
       0.0723       7.05131
       0.0724       7.05099
       0.0725       7.05067
       0.0726       7.05035
       0.0727       7.05002
       0.0728        7.0497
       0.0729       7.04937
        0.073       7.04905
       0.0731       7.04872
       0.0732       7.04839
       0.0733       7.04806
       0.0734       7.04773
       0.0735        7.0474
       0.0736       7.04706
       0.0737       7.04673
       0.0738       7.04639
       0.0739       7.04606
        0.074       7.04572
       0.0741       7.04538
       0.0742       7.04504
       0.0743        7.0447
       0.0744       7.04436
       0.0745       7.04402
       0.0746       7.04368
       0.0747       7.04333
       0.0748       7.04299
       0.0749       7.04264
        0.075       7.04229
       0.0751       7.04195
       0.0752        7.0416
       0.0753       7.04125
       0.0754        7.0409
       0.0755       7.04055
       0.0756       7.04019
       0.0757       7.03984
       0.0758       7.03949
       0.0759       7.03913
        0.076       7.03878
       0.0761       7.03842
       0.0762       7.03806
       0.0763        7.0377
       0.0764       7.03734
       0.0765       7.03698
       0.0766       7.03662
       0.0767       7.03626
       0.0768        7.0359
       0.0769       7.03554
        0.077       7.03517
       0.0771       7.03481
       0.0772       7.03444
       0.0773       7.03407
       0.0774       7.03371
       0.0775       7.03334
       0.0776       7.03297
       0.0777        7.0326
       0.0778       7.03223
       0.0779       7.03186
        0.078       7.03148
       0.0781       7.03111
       0.0782       7.03074
       0.0783       7.03036
       0.0784       7.02999
       0.0785       7.02961
       0.0786       7.02924
       0.0787       7.02886
       0.0788       7.02848
       0.0789        7.0281
        0.079       7.02772
       0.0791       7.02734
       0.0792       7.02696
       0.0793       7.02658
       0.0794        7.0262
       0.0795       7.02581
       0.0796       7.02543
       0.0797       7.02505
       0.0798       7.02466
       0.0799       7.02428
         0.08       7.02389
       0.0801       7.02351
       0.0802       7.02312
       0.0803       7.02273
       0.0804       7.02234
       0.0805       7.02195
       0.0806       7.02156
       0.0807       7.02117
       0.0808       7.02078
       0.0809       7.02038
        0.081       7.01999
       0.0811       7.01959
       0.0812       7.01919
       0.0813       7.01879
       0.0814       7.01839
       0.0815       7.01799
       0.0816       7.01758
       0.0817       7.01718
       0.0818       7.01677
       0.0819       7.01636
        0.082       7.01595
       0.0821       7.01554
       0.0822       7.01513
       0.0823       7.01472
       0.0824       7.01431
       0.0825       7.01389
       0.0826       7.01347
       0.0827       7.01306
       0.0828       7.01264
       0.0829       7.01222
        0.083       7.01179
       0.0831       7.01137
       0.0832       7.01094
       0.0833       7.01052
       0.0834       7.01009
       0.0835       7.00966
       0.0836       7.00923
       0.0837        7.0088
       0.0838       7.00837
       0.0839       7.00794
        0.084        7.0075
       0.0841       7.00706
       0.0842       7.00663
       0.0843       7.00619
       0.0844       7.00575
       0.0845       7.00531
       0.0846       7.00487
       0.0847       7.00442
       0.0848       7.00398
       0.0849       7.00353
        0.085       7.00309
       0.0851       7.00264
       0.0852       7.00219
       0.0853       7.00174
       0.0854       7.00129
       0.0855       7.00084
       0.0856       7.00039
       0.0857       6.99993
       0.0858       6.99948
       0.0859       6.99902
        0.086       6.99856
       0.0861       6.99811
       0.0862       6.99765
       0.0863       6.99719
       0.0864       6.99673
       0.0865       6.99627
       0.0866        6.9958
       0.0867       6.99534
       0.0868       6.99488
       0.0869       6.99441
        0.087       6.99395
       0.0871       6.99348
       0.0872       6.99301
       0.0873       6.99255
       0.0874       6.99208
       0.0875       6.99161
       0.0876       6.99114
       0.0877       6.99067
       0.0878        6.9902
       0.0879       6.98972
        0.088       6.98925
       0.0881       6.98878
       0.0882        6.9883
       0.0883       6.98783
       0.0884       6.98735
       0.0885       6.98688
       0.0886        6.9864
       0.0887       6.98592
       0.0888       6.98544
       0.0889       6.98497
        0.089       6.98449
       0.0891       6.98401
       0.0892       6.98353
       0.0893       6.98305
       0.0894       6.98257
       0.0895       6.98208
       0.0896        6.9816
       0.0897       6.98112
       0.0898       6.98064
       0.0899       6.98015
         0.09       6.97967
       0.0901       6.97918
       0.0902       6.97869
       0.0903       6.97821
       0.0904       6.97772
       0.0905       6.97723
       0.0906       6.97674
       0.0907       6.97624
       0.0908       6.97575
       0.0909       6.97526
        0.091       6.97476
       0.0911       6.97427
       0.0912       6.97377
       0.0913       6.97327
       0.0914       6.97277
       0.0915       6.97227
       0.0916       6.97177
       0.0917       6.97127
       0.0918       6.97077
       0.0919       6.97026
        0.092       6.96976
       0.0921       6.96925
       0.0922       6.96874
       0.0923       6.96824
       0.0924       6.96773
       0.0925       6.96722
       0.0926       6.96671
       0.0927       6.96619
       0.0928       6.96568
       0.0929       6.96517
        0.093       6.96465
       0.0931       6.96413
       0.0932       6.96362
       0.0933        6.9631
       0.0934       6.96258
       0.0935       6.96206
       0.0936       6.96154
       0.0937       6.96101
       0.0938       6.96049
       0.0939       6.95996
        0.094       6.95944
       0.0941       6.95891
       0.0942       6.95838
       0.0943       6.95786
       0.0944       6.95733
       0.0945        6.9568
       0.0946       6.95626
       0.0947       6.95573
       0.0948        6.9552
       0.0949       6.95466
        0.095       6.95413
       0.0951       6.95359
       0.0952       6.95306
       0.0953       6.95252
       0.0954       6.95198
       0.0955       6.95144
       0.0956        6.9509
       0.0957       6.95036
       0.0958       6.94981
       0.0959       6.94927
        0.096       6.94873
       0.0961       6.94818
       0.0962       6.94764
       0.0963       6.94709
       0.0964       6.94654
       0.0965         6.946
       0.0966       6.94545
       0.0967        6.9449
       0.0968       6.94435
       0.0969        6.9438
        0.097       6.94324
       0.0971       6.94269
       0.0972       6.94214
       0.0973       6.94158
       0.0974       6.94103
       0.0975       6.94048
       0.0976       6.93992
       0.0977       6.93936
       0.0978       6.93881
       0.0979       6.93825
        0.098       6.93769
       0.0981       6.93713
       0.0982       6.93657
       0.0983       6.93601
       0.0984       6.93545
       0.0985       6.93489
       0.0986       6.93432
       0.0987       6.93376
       0.0988        6.9332
       0.0989       6.93263
        0.099       6.93207
       0.0991        6.9315
       0.0992       6.93094
       0.0993       6.93037
       0.0994        6.9298
       0.0995       6.92924
       0.0996       6.92867
       0.0997        6.9281
       0.0998       6.92753
       0.0999       6.92696
          0.1       6.92639
       0.1001       6.92582
       0.1002       6.92525
       0.1003       6.92468
       0.1004        6.9241
       0.1005       6.92353
       0.1006       6.92296
       0.1007       6.92238
       0.1008       6.92181
       0.1009       6.92123
        0.101       6.92066
       0.1011       6.92008
       0.1012       6.91951
       0.1013       6.91893
       0.1014       6.91835
       0.1015       6.91777
       0.1016        6.9172
       0.1017       6.91662
       0.1018       6.91604
       0.1019       6.91546
        0.102       6.91488
       0.1021        6.9143
       0.1022       6.91372
       0.1023       6.91313
       0.1024       6.91255
       0.1025       6.91197
       0.1026       6.91139
       0.1027        6.9108
       0.1028       6.91022
       0.1029       6.90964
        0.103       6.90905
       0.1031       6.90847
       0.1032       6.90788
       0.1033        6.9073
       0.1034       6.90671
       0.1035       6.90612
       0.1036       6.90554
       0.1037       6.90495
       0.1038       6.90436
       0.1039       6.90377
        0.104       6.90318
       0.1041        6.9026
       0.1042       6.90201
       0.1043       6.90142
       0.1044       6.90083
       0.1045       6.90024
       0.1046       6.89964
       0.1047       6.89905
       0.1048       6.89846
       0.1049       6.89787
        0.105       6.89728
       0.1051       6.89668
       0.1052       6.89609
       0.1053        6.8955
       0.1054        6.8949
       0.1055       6.89431
       0.1056       6.89371
       0.1057       6.89312
       0.1058       6.89252
       0.1059       6.89193
        0.106       6.89133
       0.1061       6.89073
       0.1062       6.89013
       0.1063       6.88954
       0.1064       6.88894
       0.1065       6.88834
       0.1066       6.88774
       0.1067       6.88714
       0.1068       6.88654
       0.1069       6.88594