/*--------------------------------*- C++ -*----------------------------------*\
  =========                 |
  \\      /  F ield         | OpenFOAM: The Open Source CFD Toolbox
   \\    /   O peration     | Website:  https://openfoam.org
    \\  /    A nd           | Version:  7
     \\/     M anipulation  |
\*---------------------------------------------------------------------------*/
FoamFile
{
    version     2.0;
    format      ascii;
    class       volScalarField;
    location    "5";
    object      p;
}
// * * * * * * * * * * * * * * * * * * * * * * * * * * * * * * * * * * * * * //

dimensions      [0 2 -2 0 0 0 0];

internalField   nonuniform List<scalar> 
1500
(
1.90179
1.89088
1.86994
1.8417
1.81022
1.77838
1.74741
1.71779
1.68984
1.66383
1.63983
1.61767
1.59708
1.57776
1.55949
1.54206
1.52531
1.50913
1.49343
1.47812
1.46315
1.44849
1.4341
1.41995
1.40603
1.39231
1.37878
1.36543
1.35225
1.33922
1.32634
1.31359
1.30096
1.28846
1.27607
1.26378
1.25159
1.2395
1.2275
1.21558
1.20375
1.19199
1.18031
1.16871
1.15718
1.14571
1.13432
1.12298
1.1117
1.10047
1.0893
1.07816
1.06707
1.05601
1.04498
1.03397
1.02298
1.012
1.00103
0.990077
0.979126
0.96818
0.957236
0.946293
0.935352
0.924412
0.913472
0.902532
0.891592
0.880652
0.869712
0.858773
0.847833
0.836893
0.825953
0.815013
0.804074
0.793134
0.782194
0.771254
0.760314
0.749375
0.738435
0.727495
0.716555
0.705616
0.694676
0.683736
0.672796
0.661857
0.650917
0.639977
0.629037
0.618097
0.607158
0.596218
0.585278
0.574338
0.563399
0.552459
0.541519
0.530579
0.519639
0.5087
0.49776
0.48682
0.47588
0.464941
0.454001
0.443061
0.432121
0.421181
0.410242
0.399302
0.388362
0.377422
0.366483
0.355543
0.344603
0.333663
0.322723
0.311784
0.300844
0.289904
0.278964
0.268025
0.257085
0.246145
0.235205
0.224265
0.213326
0.202386
0.191446
0.180506
0.169567
0.158627
0.147687
0.136747
0.125807
0.114868
0.103928
0.0929881
0.0820483
0.0711086
0.0601688
0.049229
0.0382892
0.0273494
0.0164097
0.00546989
1.91374
1.89979
1.87468
1.84309
1.80969
1.7768
1.74514
1.71509
1.68702
1.66115
1.63742
1.61559
1.59532
1.57631
1.55828
1.54106
1.52448
1.50844
1.49284
1.47761
1.46271
1.4481
1.43375
1.41964
1.40575
1.39205
1.37855
1.36522
1.35205
1.33904
1.32617
1.31343
1.30082
1.28833
1.27594
1.26367
1.25149
1.2394
1.2274
1.21549
1.20366
1.19191
1.18024
1.16864
1.15711
1.14565
1.13425
1.12292
1.11165
1.10043
1.08926
1.07813
1.06704
1.05598
1.04495
1.03395
1.02296
1.01199
1.00103
0.990072
0.979123
0.968177
0.957234
0.946292
0.935352
0.924411
0.913471
0.902532
0.891592
0.880652
0.869712
0.858773
0.847833
0.836893
0.825953
0.815013
0.804074
0.793134
0.782194
0.771254
0.760314
0.749375
0.738435
0.727495
0.716555
0.705616
0.694676
0.683736
0.672796
0.661857
0.650917
0.639977
0.629037
0.618097
0.607158
0.596218
0.585278
0.574338
0.563399
0.552459
0.541519
0.530579
0.519639
0.5087
0.49776
0.48682
0.47588
0.464941
0.454001
0.443061
0.432121
0.421181
0.410242
0.399302
0.388362
0.377422
0.366483
0.355543
0.344603
0.333663
0.322723
0.311784
0.300844
0.289904
0.278964
0.268025
0.257085
0.246145
0.235205
0.224265
0.213326
0.202386
0.191446
0.180506
0.169567
0.158627
0.147687
0.136747
0.125807
0.114868
0.103928
0.0929881
0.0820483
0.0711085
0.0601688
0.049229
0.0382892
0.0273494
0.0164097
0.00546989
1.94045
1.91733
1.88254
1.84462
1.80793
1.77312
1.74021
1.70955
1.68149
1.65608
1.63301
1.61188
1.59226
1.57382
1.55628
1.53944
1.52317
1.50737
1.49195
1.47687
1.46208
1.44755
1.43327
1.41922
1.40537
1.39171
1.37824
1.36494
1.3518
1.33881
1.32596
1.31324
1.30064
1.28816
1.27579
1.26353
1.25136
1.23928
1.22729
1.21538
1.20356
1.19182
1.18015
1.16856
1.15703
1.14558
1.13419
1.12286
1.11159
1.10038
1.08921
1.07809
1.06701
1.05596
1.04494
1.03393
1.02295
1.01198
1.00102
0.990067
0.979119
0.968175
0.957232
0.946291
0.935351
0.924411
0.913471
0.902531
0.891592
0.880652
0.869712
0.858773
0.847833
0.836893
0.825953
0.815013
0.804074
0.793134
0.782194
0.771254
0.760314
0.749375
0.738435
0.727495
0.716555
0.705616
0.694676
0.683736
0.672796
0.661857
0.650917
0.639977
0.629037
0.618097
0.607158
0.596218
0.585278
0.574338
0.563399
0.552459
0.541519
0.530579
0.519639
0.5087
0.49776
0.48682
0.47588
0.464941
0.454001
0.443061
0.432121
0.421181
0.410242
0.399302
0.388362
0.377422
0.366483
0.355543
0.344603
0.333663
0.322723
0.311784
0.300844
0.289904
0.278964
0.268025
0.257085
0.246145
0.235205
0.224265
0.213326
0.202386
0.191446
0.180506
0.169567
0.158627
0.147687
0.136747
0.125807
0.114868
0.103928
0.0929881
0.0820483
0.0711085
0.0601688
0.049229
0.0382892
0.0273494
0.0164097
0.00546989
1.98836
1.94239
1.88997
1.84399
1.8038
1.76659
1.73218
1.7012
1.67381
1.64955
1.62775
1.60776
1.58909
1.57141
1.55445
1.53806
1.52212
1.50654
1.49128
1.47631
1.4616
1.44714
1.43291
1.41889
1.40507
1.39145
1.378
1.36472
1.3516
1.33863
1.32579
1.31308
1.3005
1.28803
1.27567
1.26341
1.25125
1.23918
1.2272
1.2153
1.20349
1.19175
1.18009
1.1685
1.15698
1.14553
1.13415
1.12283
1.11157
1.10036
1.0892
1.07808
1.067
1.05595
1.04493
1.03393
1.02295
1.01198
1.00102
0.990067
0.979119
0.968175
0.957233
0.946291
0.935351
0.924411
0.913471
0.902531
0.891592
0.880652
0.869712
0.858772
0.847833
0.836893
0.825953
0.815013
0.804074
0.793134
0.782194
0.771254
0.760314
0.749375
0.738435
0.727495
0.716555
0.705616
0.694676
0.683736
0.672796
0.661857
0.650917
0.639977
0.629037
0.618097
0.607158
0.596218
0.585278
0.574338
0.563399
0.552459
0.541519
0.530579
0.519639
0.5087
0.49776
0.48682
0.47588
0.464941
0.454001
0.443061
0.432121
0.421181
0.410242
0.399302
0.388362
0.377422
0.366483
0.355543
0.344603
0.333663
0.322723
0.311784
0.300844
0.289904
0.278964
0.268025
0.257085
0.246145
0.235205
0.224265
0.213326
0.202386
0.191446
0.180506
0.169567
0.158627
0.147687
0.136747
0.125807
0.114868
0.103928
0.0929881
0.0820483
0.0711085
0.0601688
0.049229
0.0382892
0.0273494
0.0164097
0.00546989
2.11343
1.99225
1.90394
1.84773
1.80314
1.76261
1.7261
1.69448
1.66742
1.64393
1.62301
1.60388
1.586
1.56897
1.55254
1.53655
1.5209
1.50555
1.49045
1.47561
1.46099
1.4466
1.43242
1.41845
1.40468
1.39109
1.37767
1.36442
1.35132
1.33836
1.32555
1.31286
1.30029
1.28784
1.27549
1.26325
1.2511
1.23904
1.22708
1.21519
1.20339
1.19166
1.18001
1.16843
1.15693
1.14549
1.13411
1.1228
1.11155
1.10034
1.08919
1.07807
1.067
1.05595
1.04493
1.03393
1.02295
1.01198
1.00102
0.990068
0.97912
0.968176
0.957233
0.946292
0.935351
0.924411
0.913471
0.902532
0.891592
0.880652
0.869712
0.858772
0.847833
0.836893
0.825953
0.815013
0.804074
0.793134
0.782194
0.771254
0.760314
0.749375
0.738435
0.727495
0.716555
0.705616
0.694676
0.683736
0.672796
0.661857
0.650917
0.639977
0.629037
0.618097
0.607158
0.596218
0.585278
0.574338
0.563399
0.552459
0.541519
0.530579
0.519639
0.5087
0.49776
0.48682
0.47588
0.464941
0.454001
0.443061
0.432121
0.421181
0.410242
0.399302
0.388362
0.377422
0.366483
0.355543
0.344603
0.333663
0.322723
0.311784
0.300844
0.289904
0.278964
0.268025
0.257085
0.246145
0.235205
0.224265
0.213326
0.202386
0.191446
0.180506
0.169567
0.158627
0.147687
0.136747
0.125807
0.114868
0.103928
0.0929881
0.0820483
0.0711085
0.0601688
0.049229
0.0382892
0.0273494
0.0164097
0.00546989
1.90179
1.89088
1.86994
1.8417
1.81022
1.77838
1.74741
1.71779
1.68984
1.66383
1.63983
1.61767
1.59708
1.57776
1.55949
1.54206
1.52531
1.50913
1.49343
1.47812
1.46315
1.44849
1.4341
1.41995
1.40603
1.39231
1.37878
1.36543
1.35225
1.33922
1.32634
1.31359
1.30096
1.28846
1.27607
1.26378
1.25159
1.2395
1.2275
1.21558
1.20375
1.19199
1.18031
1.16871
1.15718
1.14571
1.13432
1.12298
1.1117
1.10047
1.0893
1.07816
1.06707
1.05601
1.04498
1.03397
1.02298
1.012
1.00103
0.990077
0.979126
0.96818
0.957236
0.946293
0.935352
0.924412
0.913472
0.902532
0.891592
0.880652
0.869712
0.858773
0.847833
0.836893
0.825953
0.815013
0.804074
0.793134
0.782194
0.771254
0.760314
0.749375
0.738435
0.727495
0.716555
0.705616
0.694676
0.683736
0.672796
0.661857
0.650917
0.639977
0.629037
0.618097
0.607158
0.596218
0.585278
0.574338
0.563399
0.552459
0.541519
0.530579
0.519639
0.5087
0.49776
0.48682
0.47588
0.464941
0.454001
0.443061
0.432121
0.421181
0.410242
0.399302
0.388362
0.377422
0.366483
0.355543
0.344603
0.333663
0.322723
0.311784
0.300844
0.289904
0.278964
0.268025
0.257085
0.246145
0.235205
0.224265
0.213326
0.202386
0.191446
0.180506
0.169567
0.158627
0.147687
0.136747
0.125807
0.114868
0.103928
0.0929881
0.0820483
0.0711086
0.0601688
0.049229
0.0382892
0.0273494
0.0164097
0.00546989
1.91374
1.89979
1.87468
1.84309
1.80969
1.7768
1.74514
1.71509
1.68702
1.66115
1.63742
1.61559
1.59532
1.57631
1.55828
1.54106
1.52448
1.50844
1.49284
1.47761
1.46271
1.4481
1.43375
1.41964
1.40575
1.39205
1.37855
1.36522
1.35205
1.33904
1.32617
1.31343
1.30082
1.28833
1.27594
1.26367
1.25149
1.2394
1.2274
1.21549
1.20366
1.19191
1.18024
1.16864
1.15711
1.14565
1.13425
1.12292
1.11165
1.10043
1.08926
1.07813
1.06704
1.05598
1.04495
1.03395
1.02296
1.01199
1.00103
0.990072
0.979123
0.968177
0.957234
0.946292
0.935352
0.924411
0.913471
0.902532
0.891592
0.880652
0.869712
0.858773
0.847833
0.836893
0.825953
0.815013
0.804074
0.793134
0.782194
0.771254
0.760314
0.749375
0.738435
0.727495
0.716555
0.705616
0.694676
0.683736
0.672796
0.661857
0.650917
0.639977
0.629037
0.618097
0.607158
0.596218
0.585278
0.574338
0.563399
0.552459
0.541519
0.530579
0.519639
0.5087
0.49776
0.48682
0.47588
0.464941
0.454001
0.443061
0.432121
0.421181
0.410242
0.399302
0.388362
0.377422
0.366483
0.355543
0.344603
0.333663
0.322723
0.311784
0.300844
0.289904
0.278964
0.268025
0.257085
0.246145
0.235205
0.224265
0.213326
0.202386
0.191446
0.180506
0.169567
0.158627
0.147687
0.136747
0.125807
0.114868
0.103928
0.0929881
0.0820483
0.0711086
0.0601688
0.049229
0.0382892
0.0273494
0.0164097
0.00546989
1.94045
1.91733
1.88254
1.84462
1.80793
1.77312
1.74021
1.70955
1.68149
1.65608
1.63301
1.61188
1.59226
1.57382
1.55628
1.53944
1.52317
1.50737
1.49195
1.47687
1.46208
1.44755
1.43327
1.41922
1.40537
1.39171
1.37824
1.36494
1.3518
1.33881
1.32596
1.31324
1.30064
1.28816
1.27579
1.26353
1.25136
1.23928
1.22729
1.21538
1.20356
1.19182
1.18015
1.16856
1.15703
1.14558
1.13419
1.12286
1.11159
1.10038
1.08921
1.07809
1.06701
1.05596
1.04494
1.03393
1.02295
1.01198
1.00102
0.990067
0.979119
0.968175
0.957232
0.946291
0.935351
0.924411
0.913471
0.902531
0.891592
0.880652
0.869712
0.858773
0.847833
0.836893
0.825953
0.815013
0.804074
0.793134
0.782194
0.771254
0.760314
0.749375
0.738435
0.727495
0.716555
0.705616
0.694676
0.683736
0.672796
0.661857
0.650917
0.639977
0.629037
0.618097
0.607158
0.596218
0.585278
0.574338
0.563399
0.552459
0.541519
0.530579
0.519639
0.5087
0.49776
0.48682
0.47588
0.464941
0.454001
0.443061
0.432121
0.421181
0.410242
0.399302
0.388362
0.377422
0.366483
0.355543
0.344603
0.333663
0.322723
0.311784
0.300844
0.289904
0.278964
0.268025
0.257085
0.246145
0.235205
0.224265
0.213326
0.202386
0.191446
0.180506
0.169567
0.158627
0.147687
0.136747
0.125807
0.114868
0.103928
0.0929881
0.0820483
0.0711086
0.0601688
0.049229
0.0382892
0.0273494
0.0164097
0.00546989
1.98836
1.94239
1.88997
1.84399
1.8038
1.76659
1.73218
1.7012
1.67381
1.64955
1.62775
1.60776
1.58909
1.57141
1.55445
1.53806
1.52212
1.50654
1.49128
1.47631
1.4616
1.44714
1.43291
1.41889
1.40507
1.39145
1.378
1.36472
1.3516
1.33863
1.32579
1.31308
1.3005
1.28803
1.27567
1.26341
1.25125
1.23918
1.2272
1.2153
1.20349
1.19175
1.18009
1.1685
1.15698
1.14553
1.13415
1.12283
1.11157
1.10036
1.0892
1.07808
1.067
1.05595
1.04493
1.03393
1.02295
1.01198
1.00102
0.990067
0.979119
0.968175
0.957233
0.946291
0.935351
0.924411
0.913471
0.902531
0.891592
0.880652
0.869712
0.858773
0.847833
0.836893
0.825953
0.815013
0.804074
0.793134
0.782194
0.771254
0.760314
0.749375
0.738435
0.727495
0.716555
0.705616
0.694676
0.683736
0.672796
0.661857
0.650917
0.639977
0.629037
0.618097
0.607158
0.596218
0.585278
0.574338
0.563399
0.552459
0.541519
0.530579
0.519639
0.5087
0.49776
0.48682
0.47588
0.464941
0.454001
0.443061
0.432121
0.421181
0.410242
0.399302
0.388362
0.377422
0.366483
0.355543
0.344603
0.333663
0.322723
0.311784
0.300844
0.289904
0.278964
0.268025
0.257085
0.246145
0.235205
0.224265
0.213326
0.202386
0.191446
0.180506
0.169567
0.158627
0.147687
0.136747
0.125807
0.114868
0.103928
0.0929881
0.0820483
0.0711086
0.0601688
0.049229
0.0382892
0.0273494
0.0164097
0.00546989
2.11343
1.99225
1.90394
1.84773
1.80314
1.76261
1.7261
1.69448
1.66742
1.64393
1.62301
1.60388
1.586
1.56897
1.55254
1.53655
1.5209
1.50555
1.49045
1.47561
1.46099
1.4466
1.43242
1.41845
1.40468
1.39109
1.37767
1.36442
1.35132
1.33836
1.32555
1.31286
1.30029
1.28784
1.27549
1.26325
1.2511
1.23904
1.22708
1.21519
1.20339
1.19166
1.18001
1.16843
1.15693
1.14549
1.13411
1.1228
1.11155
1.10034
1.08919
1.07807
1.067
1.05595
1.04493
1.03393
1.02295
1.01198
1.00102
0.990068
0.97912
0.968176
0.957233
0.946292
0.935351
0.924411
0.913471
0.902532
0.891592
0.880652
0.869712
0.858772
0.847833
0.836893
0.825953
0.815013
0.804074
0.793134
0.782194
0.771254
0.760314
0.749375
0.738435
0.727495
0.716555
0.705616
0.694676
0.683736
0.672796
0.661857
0.650917
0.639977
0.629037
0.618097
0.607158
0.596218
0.585278
0.574338
0.563399
0.552459
0.541519
0.530579
0.519639
0.5087
0.49776
0.48682
0.47588
0.464941
0.454001
0.443061
0.432121
0.421181
0.410242
0.399302
0.388362
0.377422
0.366483
0.355543
0.344603
0.333663
0.322723
0.311784
0.300844
0.289904
0.278964
0.268025
0.257085
0.246145
0.235205
0.224265
0.213326
0.202386
0.191446
0.180506
0.169567
0.158627
0.147687
0.136747
0.125807
0.114868
0.103928
0.0929881
0.0820483
0.0711086
0.0601688
0.049229
0.0382892
0.0273494
0.0164097
0.00546989
)
;

boundaryField
{
    inlet
    {
        type            zeroGradient;
    }
    outlet
    {
        type            fixedValue;
        value           uniform 0;
    }
    top
    {
        type            zeroGradient;
    }
    bottom
    {
        type            zeroGradient;
    }
    defaultFaces
    {
        type            empty;
    }
}


// ************************************************************************* //
