/*--------------------------------*- C++ -*----------------------------------*\
  =========                 |
  \\      /  F ield         | OpenFOAM: The Open Source CFD Toolbox
   \\    /   O peration     | Website:  https://openfoam.org
    \\  /    A nd           | Version:  7
     \\/     M anipulation  |
\*---------------------------------------------------------------------------*/
FoamFile
{
    version     2.0;
    format      ascii;
    class       surfaceScalarField;
    location    "5";
    object      phi;
}
// * * * * * * * * * * * * * * * * * * * * * * * * * * * * * * * * * * * * * //

dimensions      [0 3 -1 0 0 0 0];

internalField   nonuniform List<scalar> 
2840
(
0.0100654
-6.53948e-05
6.74817e-13
0.0102509
-0.000185527
1.58011e-12
0.0105092
-0.000258238
-1.66541e-12
0.0107948
-0.000285639
-3.16156e-13
0.011085
-0.000290163
7.10947e-13
0.011369
-0.000284043
4.95167e-13
0.0116389
-0.000269847
-2.0292e-13
0.0118879
-0.000249016
-4.07168e-13
0.0121128
-0.000224953
2.72504e-13
0.0123143
-0.000201452
1.18273e-12
0.0124944
-0.000180118
1.31993e-12
0.0126558
-0.000161392
8.03265e-13
0.012801
-0.000145217
7.90337e-13
0.0129324
-0.000131362
1.28037e-12
0.0130519
-0.000119524
1.39271e-12
0.0131613
-0.000109379
8.9598e-13
0.0132619
-0.000100623
5.23227e-13
0.0133549
-9.29812e-05
5.40753e-13
0.0134411
-8.62249e-05
6.63583e-13
0.0135213
-8.01756e-05
6.08245e-13
0.013596
-7.47001e-05
4.72122e-15
0.0136657
-6.97008e-05
-8.81565e-13
0.0137308
-6.51052e-05
-1.08179e-12
0.0137916
-6.08594e-05
-4.62026e-13
0.0138486
-5.69219e-05
-3.15682e-13
0.0139018
-5.32606e-05
-1.3325e-12
0.0139517
-4.98498e-05
-2.11024e-12
0.0139983
-4.66681e-05
-1.11773e-12
0.014042
-4.3697e-05
2.7241e-13
0.014083
-4.09199e-05
1.2034e-13
0.0141213
-3.83214e-05
-7.74238e-13
0.0141572
-3.58871e-05
-2.38503e-13
0.0141908
-3.36032e-05
1.21126e-12
0.0142222
-3.14565e-05
1.43019e-12
0.0142517
-2.94341e-05
8.1932e-13
0.0142792
-2.7523e-05
6.53876e-13
0.0143049
-2.57105e-05
9.84105e-13
0.0143289
-2.39835e-05
7.86644e-13
0.0143512
-2.23293e-05
4.45782e-13
0.0143719
-2.07356e-05
9.82964e-13
0.0143911
-1.91912e-05
1.3508e-12
0.0144088
-1.76866e-05
1.07186e-12
0.014425
-1.62147e-05
1.34192e-12
0.0144398
-1.47713e-05
2.65065e-12
0.0144532
-1.33555e-05
2.60236e-12
0.0144651
-1.19695e-05
-3.48375e-14
0.0144757
-1.06192e-05
-1.26716e-12
0.0144851
-9.31315e-06
4.61323e-13
0.0144931
-8.06219e-06
2.52554e-12
0.0145
-6.87874e-06
1.31176e-12
0.0145058
-5.77564e-06
-1.08398e-12
0.0145105
-4.7649e-06
-2.50646e-12
0.0145144
-3.85654e-06
-2.01073e-12
0.0145175
-3.05746e-06
-1.96187e-13
0.0145198
-2.37064e-06
3.22313e-13
0.0145216
-1.79483e-06
-8.69474e-14
0.0145229
-1.32469e-06
6.52215e-13
0.0145239
-9.51417e-07
1.65977e-12
0.0145246
-6.63635e-07
2.62497e-12
0.014525
-4.48521e-07
2.22699e-12
0.0145253
-2.92888e-07
6.16046e-13
0.0145255
-1.84121e-07
5.79136e-13
0.0145256
-1.10877e-07
1.67003e-12
0.0145257
-6.351e-08
1.30563e-12
0.0145257
-3.42276e-08
5.70602e-13
0.0145257
-1.70421e-08
3.27831e-13
0.0145257
-7.57101e-09
3.65846e-13
0.0145257
-2.77472e-09
1.13777e-12
0.0145257
-5.97559e-10
-1.77151e-12
0.0145257
2.10122e-10
2.52776e-12
0.0145257
3.61923e-10
2.89567e-12
0.0145257
2.75991e-10
1.08085e-12
0.0145257
1.4418e-10
1.12428e-12
0.0145257
3.45269e-11
7.31886e-13
0.0145257
-3.28371e-11
1.62712e-12
0.0145257
-5.91844e-11
1.03239e-12
0.0145257
-6.11054e-11
-1.43606e-12
0.0145257
-5.21484e-11
-2.25863e-12
0.0145257
-3.96749e-11
-1.06472e-12
0.0145257
-2.70489e-11
-6.94476e-13
0.0145257
-1.60582e-11
-1.68961e-12
0.0145257
-8.65871e-12
-2.09246e-12
0.0145257
-5.1243e-12
-9.10526e-13
0.0145257
-3.00453e-12
4.41347e-13
0.0145257
-1.50118e-12
3.8321e-13
0.0145257
-1.29494e-12
-2.20675e-13
0.0145257
-1.90807e-12
-2.28913e-13
0.0145257
-2.13007e-12
-1.33002e-13
0.0145257
-1.45673e-12
-3.76869e-13
0.0145257
-4.04782e-13
-5.04563e-13
0.0145257
6.89757e-13
-6.58449e-13
0.0145257
1.55517e-12
-8.44648e-13
0.0145257
1.99579e-12
-6.12446e-13
0.0145257
2.03697e-12
5.32955e-14
0.0145257
1.36262e-12
3.73172e-13
0.0145257
6.29262e-13
5.73453e-13
0.0145257
-1.32462e-13
7.00713e-13
0.0145257
-8.28285e-13
8.71761e-13
0.0145257
-1.252e-12
9.38101e-13
0.0145257
-1.38232e-12
6.6968e-13
0.0145257
-1.08166e-12
1.89185e-13
0.0145257
-4.35731e-13
-1.94334e-13
0.0145257
2.51908e-13
-2.63202e-14
0.0145257
5.6987e-13
3.94124e-13
0.0145257
4.27206e-13
3.96917e-13
0.0145257
4.39557e-13
-4.51053e-13
0.0145257
7.09569e-13
-1.04381e-12
0.0145257
1.07959e-12
-8.78984e-13
0.0145257
1.30189e-12
-2.93329e-13
0.0145257
1.40295e-12
9.8311e-14
0.0145257
1.12707e-12
1.96838e-13
0.0145257
4.3042e-13
2.52097e-13
0.0145257
1.91235e-13
-7.78407e-14
0.0145257
9.29626e-14
-5.34946e-13
0.0145257
2.5443e-14
-1.04445e-12
0.0145257
-4.75094e-13
-1.12846e-12
0.0145257
-8.12478e-13
-9.07754e-13
0.0145257
-7.27886e-13
-5.13855e-13
0.0145257
-2.35192e-13
2.74337e-13
0.0145257
5.60851e-14
1.43484e-12
0.0145257
1.86935e-13
2.65313e-12
0.0145257
8.98149e-14
2.78088e-12
0.0145257
-1.63581e-13
2.17606e-12
0.0145257
-2.57984e-13
1.15012e-12
0.0145257
-1.08162e-12
-3.54031e-14
0.0145257
-1.90463e-12
-1.54725e-12
0.0145257
-1.72311e-12
-2.40245e-12
0.0145257
-7.0915e-14
-1.87616e-12
0.0145257
1.99125e-12
-2.23696e-13
0.0145257
3.53512e-12
9.01734e-13
0.0145257
2.92528e-12
-1.09877e-15
0.0145257
7.77934e-13
-1.98124e-12
0.0145257
-6.6586e-13
-2.67394e-12
0.0145257
-6.45808e-13
2.06613e-14
0.0145257
3.79333e-14
3.45804e-12
0.0145257
-1.15486e-12
4.96234e-12
0.0145257
-4.13863e-12
4.36155e-12
0.0145257
-7.02101e-12
1.22538e-13
0.0145257
-4.99596e-12
-2.91061e-12
0.0145257
4.89172e-13
-1.6722e-12
0.0145257
4.19464e-12
1.43685e-12
0.0145257
3.23464e-12
4.53244e-12
0.0145257
8.70395e-13
1.77399e-12
0.0145257
1.25632e-12
-4.08335e-12
0.0145257
3.6221e-12
-6.26376e-12
0.0145257
2.05549e-12
-6.01354e-12
0.0145257
3.08323e-13
-4.66889e-12
0.0145257
-2.73431e-12
2.33636e-13
0.0145257
-3.98014e-12
-1.09968e-12
-8.10803e-12
-4.60298e-12
0.0100904
-0.000155813
0.0103203
-0.000415448
0.0106081
-0.000546036
0.010907
-0.000584492
0.0111994
-0.000582543
0.0114749
-0.000559576
0.0117244
-0.000519352
0.0119428
-0.000467393
0.0121302
-0.000412394
0.0122896
-0.000360848
0.0124248
-0.000315273
0.0125396
-0.000276184
0.0126376
-0.000243205
0.0127218
-0.000215612
0.0127948
-0.000192537
0.0128586
-0.000173198
0.0129149
-0.000156881
0.0129649
-0.000142958
0.0130096
-0.000130919
0.0130498
-0.00012037
0.0130861
-0.000111017
0.013119
-0.000102643
0.013149
-9.50834e-05
0.0131764
-8.82165e-05
0.0132014
-8.19471e-05
0.0132243
-7.62014e-05
0.0132454
-7.09199e-05
0.0132648
-6.60535e-05
0.0132826
-6.15604e-05
0.0132991
-5.74041e-05
0.0133144
-5.35519e-05
0.0133284
-4.99741e-05
0.0133415
-4.66434e-05
0.0133536
-4.35344e-05
0.0133647
-4.0623e-05
0.0133751
-3.78858e-05
0.0133847
-3.53001e-05
0.0133936
-3.28435e-05
0.0134017
-3.04948e-05
0.0134092
-2.82339e-05
0.0134161
-2.60432e-05
0.0134223
-2.39085e-05
0.0134279
-2.18196e-05
0.0134329
-1.97717e-05
0.0134373
-1.7765e-05
0.0134412
-1.58057e-05
0.0134444
-1.39047e-05
0.0134472
-1.20771e-05
0.0134495
-1.0341e-05
0.0134513
-8.71547e-06
0.0134528
-7.21887e-06
0.0134539
-5.86704e-06
0.0134547
-4.67155e-06
0.0134553
-3.63837e-06
0.0134557
-2.76728e-06
0.0134559
-2.05191e-06
0.0134561
-1.48054e-06
0.0134562
-1.03736e-06
0.0134562
-7.04079e-07
0.0134562
-4.61488e-07
0.0134562
-2.90944e-07
0.0134562
-1.75453e-07
0.0134562
-1.00384e-07
0.0134562
-5.3786e-08
0.0134562
-2.6372e-08
0.0134562
-1.1269e-08
0.0134562
-3.64691e-09
0.0134562
-3.17578e-10
0.0134562
9.05774e-10
0.0134562
1.01437e-09
0.0134562
7.51368e-10
0.0134562
4.33273e-10
0.0134562
1.82949e-10
0.0134562
2.6224e-11
0.0134562
-5.36672e-11
0.0134562
-8.12195e-11
0.0134562
-7.7725e-11
0.0134562
-6.06523e-11
0.0134562
-4.26729e-11
0.0134562
-2.80379e-11
0.0134562
-1.66355e-11
0.0134562
-8.80018e-12
0.0134562
-4.39107e-12
0.0134562
-2.77652e-12
0.0134562
-3.09803e-12
0.0134562
-3.77833e-12
0.0134562
-3.67594e-12
0.0134562
-2.52249e-12
0.0134562
-9.1483e-13
0.0134562
6.95327e-13
0.0134562
2.34976e-12
0.0134562
3.54579e-12
0.0134562
4.08445e-12
0.0134562
3.42661e-12
0.0134562
1.85509e-12
0.0134562
4.87692e-13
0.0134562
-6.80273e-13
0.0134562
-1.68462e-12
0.0134562
-2.59803e-12
0.0134562
-2.6029e-12
0.0134562
-1.63142e-12
0.0134562
-5.62613e-13
0.0134562
-1.15532e-13
0.0134562
-3.19772e-13
0.0134562
-3.89994e-13
0.0134562
-1.64811e-13
0.0134562
2.12946e-13
0.0134562
5.00445e-13
0.0134562
4.62406e-13
0.0134562
3.06581e-13
0.0134562
-4.06359e-13
0.0134562
-1.494e-12
0.0134562
-2.15892e-12
0.0134562
-2.15384e-12
0.0134562
-1.47578e-12
0.0134562
-6.85158e-13
0.0134562
-1.84021e-13
0.0134562
8.1172e-13
0.0134562
1.87582e-12
0.0134562
2.33623e-12
0.0134562
1.73312e-12
0.0134562
4.78533e-13
0.0134562
-1.28862e-12
0.0134562
-2.9598e-12
0.0134562
-3.82552e-12
0.0134562
-3.18107e-12
0.0134562
-1.6759e-12
0.0134562
1.69713e-12
0.0134562
4.66107e-12
0.0134562
4.4527e-12
0.0134562
2.27654e-12
0.0134562
4.16764e-13
0.0134562
4.82222e-13
0.0134562
1.44408e-12
0.0134562
4.55184e-14
0.0134562
-3.99861e-12
0.0134562
-8.90775e-12
0.0134562
-8.19122e-12
0.0134562
-1.82016e-12
0.0134562
5.34548e-12
0.0134562
7.31989e-12
0.0134562
2.44665e-12
0.0134562
-3.16945e-12
0.0134562
6.32632e-13
0.0134562
6.24635e-12
0.0134562
8.84062e-13
0.0134562
2.5063e-12
0.0134562
1.16906e-12
0.0134562
7.11397e-12
-4.7087e-12
0.0101711
-0.000326946
0.0104732
-0.000717559
0.0107747
-0.000847477
0.0110406
-0.000850383
0.0112685
-0.000810501
0.0114512
-0.000742277
0.0115865
-0.000654645
0.0116798
-0.000560625
0.0117389
-0.000471526
0.0117714
-0.000393394
0.011784
-0.000327847
0.0117821
-0.000274298
0.0117703
-0.000231338
0.0117519
-0.0001973
0.0117296
-0.000170142
0.0117048
-0.00014849
0.0116791
-0.000131101
0.011653
-0.000116938
0.0116273
-0.000105206
0.0116023
-9.53136e-05
0.0115781
-8.68339e-05
0.0115549
-7.94575e-05
0.0115328
-7.29611e-05
0.0115118
-6.71819e-05
0.0114918
-6.19996e-05
0.0114729
-5.73235e-05
0.0114551
-5.30835e-05
0.0114383
-4.92237e-05
0.0114224
-4.56979e-05
0.0114075
-4.24674e-05
0.0113934
-3.94984e-05
0.0113802
-3.67615e-05
0.0113678
-3.42302e-05
0.0113561
-3.18804e-05
0.0113452
-2.96894e-05
0.0113349
-2.7636e-05
0.0113253
-2.56997e-05
0.0113164
-2.38608e-05
0.011308
-2.21009e-05
0.0113001
-2.04033e-05
0.0112928
-1.87539e-05
0.0112861
-1.71424e-05
0.0112798
-1.55625e-05
0.0112741
-1.40128e-05
0.0112688
-1.24967e-05
0.011264
-1.10222e-05
0.0112597
-9.60076e-06
0.0112559
-8.24664e-06
0.0112525
-6.97498e-06
0.0112496
-5.80047e-06
0.0112471
-4.7358e-06
0.011245
-3.79046e-06
0.0112433
-2.96975e-06
0.011242
-2.27413e-06
0.0112409
-1.69936e-06
0.0112401
-1.23703e-06
0.0112395
-8.75518e-07
0.011239
-6.01123e-07
0.0112387
-3.9928e-07
0.0112385
-2.55663e-07
0.0112384
-1.57054e-07
0.0112383
-9.19214e-08
0.0112383
-5.07148e-08
0.0112382
-2.59008e-08
0.0112382
-1.18144e-08
0.0112382
-4.39625e-09
0.0112382
-8.51418e-10
0.0112382
4.08232e-10
0.0112382
7.46031e-10
0.0112382
6.52863e-10
0.0112382
4.33193e-10
0.0112382
2.25478e-10
0.0112382
7.64115e-11
0.0112382
-8.05005e-12
0.0112382
-4.44154e-11
0.0112382
-5.30734e-11
0.0112382
-4.76451e-11
0.0112382
-3.6003e-11
0.0112382
-2.37282e-11
0.0112382
-1.43438e-11
0.0112382
-8.62641e-12
0.0112382
-4.96745e-12
0.0112382
-2.5035e-12
0.0112382
-2.04504e-12
0.0112382
-3.05907e-12
0.0112382
-3.33863e-12
0.0112382
-2.46953e-12
0.0112382
-1.27838e-12
0.0112382
7.51251e-14
0.0112382
1.53543e-12
0.0112382
2.56321e-12
0.0112382
3.07363e-12
0.0112382
3.23478e-12
0.0112382
2.53418e-12
0.0112382
7.86254e-13
0.0112382
-7.23126e-13
0.0112382
-1.42575e-12
0.0112382
-1.72372e-12
0.0112382
-2.12714e-12
0.0112382
-2.10066e-12
0.0112382
-1.17573e-12
0.0112382
-9.65468e-14
0.0112382
1.64847e-13
0.0112382
-2.2796e-13
0.0112382
-4.18252e-13
0.0112382
-7.4668e-14
0.0112382
2.4069e-13
0.0112382
1.65147e-13
0.0112382
-1.45055e-13
0.0112382
-5.08391e-13
0.0112382
-1.16347e-12
0.0112382
-1.7874e-12
0.0112382
-1.88993e-12
0.0112382
-1.55381e-12
0.0112382
-1.10531e-12
0.0112382
-4.57107e-13
0.0112382
4.97647e-13
0.0112382
1.51425e-12
0.0112382
2.22646e-12
0.0112382
2.45245e-12
0.0112382
1.84427e-12
0.0112382
-9.76177e-14
0.0112382
-2.37388e-12
0.0112382
-3.67101e-12
0.0112382
-3.55595e-12
0.0112382
-2.41673e-12
0.0112382
-2.40568e-14
0.0112382
2.96689e-12
0.0112382
4.31609e-12
0.0112382
3.28055e-12
0.0112382
8.93532e-13
0.0112382
-2.59076e-13
0.0112382
5.01715e-13
0.0112382
8.95826e-13
0.0112382
-7.47159e-13
0.0112382
-4.24527e-12
0.0112382
-7.01979e-12
0.0112382
-4.6879e-12
0.0112382
2.5656e-12
0.0112382
6.54402e-12
0.0112382
3.24097e-12
0.0112382
-2.69408e-12
0.0112382
-2.82059e-12
0.0112382
1.6219e-12
0.0112382
-3.11602e-13
0.0112382
-1.91426e-12
0.0112382
6.59095e-12
0.0112382
4.19849e-12
0.0112382
3.87441e-12
-1.15798e-11
0.0102853
-0.000612233
0.010502
-0.000934222
0.010561
-0.000906489
0.0105323
-0.000821727
0.0104404
-0.000718563
0.0102934
-0.000595323
0.0101153
-0.000476506
0.00992525
-0.000370605
0.00973609
-0.00028236
0.00955532
-0.000212629
0.00938717
-0.000159696
0.00923369
-0.000120812
0.00909533
-9.29808e-05
0.00897142
-7.33913e-05
0.00886095
-5.96744e-05
0.0087625
-5.00353e-05
0.00867456
-4.31618e-05
0.00859574
-3.81186e-05
0.0085248
-3.42657e-05
0.00846067
-3.11847e-05
0.00840245
-2.8612e-05
0.00834938
-2.63866e-05
0.00830083
-2.44112e-05
0.00825627
-2.26276e-05
0.00821527
-2.10002e-05
0.00817746
-1.9507e-05
0.00814251
-1.81328e-05
0.00811015
-1.68661e-05
0.00808015
-1.56977e-05
0.0080523
-1.4619e-05
0.00802642
-1.36219e-05
0.00800236
-1.26988e-05
0.00797997
-1.18424e-05
0.00795914
-1.10454e-05
0.00793975
-1.03009e-05
0.00792171
-9.60174e-06
0.00790496
-8.94099e-06
0.00788941
-8.31179e-06
0.00787501
-7.70765e-06
0.00786173
-7.12274e-06
0.00784953
-6.55222e-06
0.00783838
-5.99263e-06
0.00782826
-5.44213e-06
0.00781915
-4.90069e-06
0.00781102
-4.37005e-06
0.00780385
-3.85355e-06
0.00779761
-3.35575e-06
0.00779224
-2.88191e-06
0.00778771
-2.43739e-06
0.00778393
-2.02701e-06
0.00778085
-1.65472e-06
0.00777839
-1.32416e-06
0.00777645
-1.03747e-06
0.00777497
-7.94752e-07
0.00777387
-5.94369e-07
0.00777307
-4.33253e-07
0.0077725
-3.07248e-07
0.00777211
-2.1153e-07
0.00777185
-1.41011e-07
0.00777168
-9.07156e-08
0.00777158
-5.6066e-08
0.00777152
-3.30765e-08
0.00777149
-1.84447e-08
0.00777148
-9.56443e-09
0.00777147
-4.47165e-09
0.00777147
-1.75054e-09
0.00777147
-4.28729e-10
0.00777147
1.01034e-10
0.00777147
2.46698e-10
0.00777147
2.2738e-10
0.00777147
1.56977e-10
0.00777147
8.72076e-11
0.00777147
3.4825e-11
0.00777147
2.24328e-12
0.00777147
-1.11882e-11
0.00777147
-1.59266e-11
0.00777147
-1.53228e-11
0.00777147
-1.23122e-11
0.00777147
-8.10508e-12
0.00777147
-4.91085e-12
0.00777147
-3.47195e-12
0.00777147
-2.26799e-12
0.00777147
-1.25641e-12
0.00777147
-1.35185e-12
0.00777147
-1.70088e-12
0.00777147
-1.31091e-12
0.00777147
-6.30182e-13
0.00777147
5.23852e-14
0.00777147
7.2012e-13
0.00777147
1.14332e-12
0.00777147
1.33417e-12
0.00777147
1.29103e-12
0.00777147
1.02813e-12
0.00777147
6.13461e-13
0.00777147
-9.37643e-14
0.00777147
-7.37977e-13
0.00777147
-9.54598e-13
0.00777147
-8.52013e-13
0.00777147
-7.4801e-13
0.00777147
-7.64444e-13
0.00777147
-3.63935e-13
0.00777147
3.8994e-13
0.00777147
5.29561e-13
0.00777147
-6.90966e-14
0.00777147
-4.37261e-13
0.00777147
-2.10515e-13
0.00777147
-1.86602e-13
0.00777147
-7.50478e-13
0.00777147
-1.15938e-12
0.00777147
-1.13541e-12
0.00777147
-1.23602e-12
0.00777147
-1.49047e-12
0.00777147
-1.46882e-12
0.00777147
-1.20349e-12
0.00777147
-1.01555e-12
0.00777147
-4.48133e-13
0.00777147
4.63779e-13
0.00777147
1.36896e-12
0.00777147
1.80281e-12
0.00777147
1.5664e-12
0.00777147
6.37981e-13
0.00777147
-8.95351e-13
0.00777147
-2.01811e-12
0.00777147
-2.35131e-12
0.00777147
-1.97019e-12
0.00777147
-4.69853e-13
0.00777147
1.23367e-12
0.00777147
2.15757e-12
0.00777147
1.71261e-12
0.00777147
5.37356e-13
0.00777147
-4.07046e-13
0.00777147
-4.539e-13
0.00777147
2.5912e-13
0.00777147
2.93326e-13
0.00777147
-7.32445e-13
0.00777147
-2.06016e-12
0.00777147
-1.98392e-12
0.00777147
4.1986e-13
0.00777147
2.94138e-12
0.00777147
8.96882e-13
0.00777147
-3.21102e-12
0.00777147
-2.19972e-12
0.00777147
-6.28377e-13
0.00777147
-2.43802e-12
0.00777147
-4.72614e-13
0.00777147
1.93146e-12
0.00777147
2.31639e-13
0.00777147
-3.8878e-12
0.00777147
-1.04174e-12
-7.88214e-12
0.00938777
0.00845354
0.00754706
0.00672533
0.00600677
0.00541144
0.00493494
0.00456433
0.00428197
0.00406934
0.00390965
0.00378883
0.00369585
0.00362246
0.00356279
0.00351275
0.00346959
0.00343147
0.00339721
0.00336602
0.00333741
0.00331102
0.00328661
0.00326398
0.00324298
0.00322348
0.00320534
0.00318848
0.00317278
0.00315816
0.00314454
0.00313184
0.00312
0.00310895
0.00309865
0.00308905
0.00308011
0.0030718
0.00306409
0.00305697
0.00305042
0.00304442
0.00303898
0.00303408
0.00302971
0.00302586
0.0030225
0.00301962
0.00301718
0.00301515
0.0030135
0.00301218
0.00301114
0.00301034
0.00300975
0.00300932
0.00300901
0.0030088
0.00300866
0.00300857
0.00300851
0.00300848
0.00300846
0.00300845
0.00300844
0.00300844
0.00300844
0.00300844
0.00300844
0.00300844
0.00300844
0.00300844
0.00300844
0.00300844
0.00300844
0.00300844
0.00300844
0.00300844
0.00300844
0.00300844
0.00300844
0.00300844
0.00300844
0.00300844
0.00300844
0.00300844
0.00300844
0.00300844
0.00300844
0.00300844
0.00300844
0.00300844
0.00300844
0.00300844
0.00300844
0.00300844
0.00300844
0.00300844
0.00300844
0.00300844
0.00300844
0.00300844
0.00300844
0.00300844
0.00300844
0.00300844
0.00300844
0.00300844
0.00300844
0.00300844
0.00300844
0.00300844
0.00300844
0.00300844
0.00300844
0.00300844
0.00300844
0.00300844
0.00300844
0.00300844
0.00300844
0.00300844
0.00300844
0.00300844
0.00300844
0.00300844
0.00300844
0.00300844
0.00300844
0.00300844
0.00300844
0.00300844
0.00300844
0.00300844
0.00300844
0.00300844
0.00300844
0.00300844
0.00300844
0.00300844
0.00300844
0.00300844
0.00300844
0.00300844
0.00300844
0.00300844
0.00300844
0.00300844
0.00300844
0.0100654
-6.53948e-05
0.0102509
-0.000185527
0.0105092
-0.000258238
0.0107948
-0.000285639
0.011085
-0.000290163
0.011369
-0.000284043
0.0116389
-0.000269847
0.0118879
-0.000249016
0.0121128
-0.000224953
0.0123143
-0.000201452
0.0124944
-0.000180118
0.0126558
-0.000161392
0.012801
-0.000145217
0.0129324
-0.000131362
0.0130519
-0.000119524
0.0131613
-0.000109379
0.0132619
-0.000100623
0.0133549
-9.29812e-05
0.0134411
-8.62249e-05
0.0135213
-8.01756e-05
0.013596
-7.47001e-05
0.0136657
-6.97008e-05
0.0137308
-6.51053e-05
0.0137916
-6.08594e-05
0.0138486
-5.69219e-05
0.0139018
-5.32606e-05
0.0139517
-4.98498e-05
0.0139983
-4.66681e-05
0.014042
-4.3697e-05
0.014083
-4.09199e-05
0.0141213
-3.83214e-05
0.0141572
-3.58871e-05
0.0141908
-3.36032e-05
0.0142222
-3.14565e-05
0.0142517
-2.94341e-05
0.0142792
-2.7523e-05
0.0143049
-2.57105e-05
0.0143289
-2.39835e-05
0.0143512
-2.23293e-05
0.0143719
-2.07356e-05
0.0143911
-1.91912e-05
0.0144088
-1.76866e-05
0.014425
-1.62147e-05
0.0144398
-1.47713e-05
0.0144532
-1.33555e-05
0.0144651
-1.19695e-05
0.0144757
-1.06192e-05
0.0144851
-9.31315e-06
0.0144931
-8.06218e-06
0.0145
-6.87874e-06
0.0145058
-5.77563e-06
0.0145105
-4.7649e-06
0.0145144
-3.85654e-06
0.0145175
-3.05746e-06
0.0145198
-2.37064e-06
0.0145216
-1.79483e-06
0.0145229
-1.32469e-06
0.0145239
-9.51416e-07
0.0145246
-6.63636e-07
0.014525
-4.48523e-07
0.0145253
-2.92889e-07
0.0145255
-1.84121e-07
0.0145256
-1.10878e-07
0.0145257
-6.35103e-08
0.0145257
-3.42292e-08
0.0145257
-1.70431e-08
0.0145257
-7.57041e-09
0.0145257
-2.77408e-09
0.0145257
-5.94905e-10
0.0145257
2.09079e-10
0.0145257
3.64165e-10
0.0145257
2.8121e-10
0.0145257
1.45092e-10
0.0145257
3.42029e-11
0.0145257
-3.17781e-11
0.0145257
-5.80949e-11
0.0145257
-6.19182e-11
0.0145257
-5.5495e-11
0.0145257
-4.38614e-11
0.0145257
-2.98718e-11
0.0145257
-1.82861e-11
0.0145257
-1.15904e-11
0.0145257
-7.34455e-12
0.0145257
-4.15025e-12
0.0145257
-2.42534e-12
0.0145257
-1.95293e-12
0.0145257
-1.87813e-12
0.0145257
-1.91884e-12
0.0145257
-1.49584e-12
0.0145257
-3.88733e-13
0.0145257
1.0774e-12
0.0145257
1.91682e-12
0.0145257
1.75469e-12
0.0145257
1.36204e-12
0.0145257
1.48729e-12
0.0145257
1.35172e-12
0.0145257
6.10869e-13
0.0145257
2.80107e-13
0.0145257
-1.94545e-13
0.0145257
-5.72446e-13
0.0145257
-9.14171e-13
0.0145257
-7.26719e-13
0.0145257
-1.5503e-13
0.0145257
-3.95351e-14
0.0145257
-6.4473e-13
0.0145257
-1.45326e-12
0.0145257
-1.80652e-12
0.0145257
-1.41976e-12
0.0145257
-5.13231e-13
0.0145257
-2.12331e-13
0.0145257
-9.15913e-13
0.0145257
-1.98832e-12
0.0145257
-2.53605e-12
0.0145257
-2.61768e-12
0.0145257
-2.40064e-12
0.0145257
-1.72814e-12
0.0145257
-3.29206e-13
0.0145257
1.64562e-12
0.0145257
3.19742e-12
0.0145257
3.99339e-12
0.0145257
3.72965e-12
0.0145257
2.91619e-12
0.0145257
1.25832e-12
0.0145257
-1.54488e-12
0.0145257
-3.05272e-12
0.0145257
-2.84143e-12
0.0145257
-2.26252e-12
0.0145257
-5.29496e-13
0.0145257
1.6423e-12
0.0145257
1.42306e-12
0.0145257
-1.75514e-13
0.0145257
-2.34259e-12
0.0145257
-1.4337e-12
0.0145257
2.64092e-12
0.0145257
4.72136e-12
0.0145257
3.3264e-12
0.0145257
-1.85534e-12
0.0145257
-5.47991e-12
0.0145257
-1.56293e-12
0.0145257
5.54928e-12
0.0145257
8.0708e-12
0.0145257
2.8523e-12
0.0145257
-4.50296e-12
0.0145257
-5.66693e-12
0.0145257
-2.68861e-12
0.0145257
-5.83864e-12
0.0145257
-3.50661e-12
0.0145257
-3.8755e-12
0.0145257
-9.13465e-12
-9.7725e-12
0.0100904
-0.000155813
0.0103203
-0.000415448
0.0106081
-0.000546036
0.010907
-0.000584492
0.0111994
-0.000582543
0.0114749
-0.000559576
0.0117244
-0.000519352
0.0119428
-0.000467393
0.0121302
-0.000412394
0.0122896
-0.000360848
0.0124248
-0.000315273
0.0125396
-0.000276184
0.0126376
-0.000243205
0.0127218
-0.000215612
0.0127948
-0.000192537
0.0128586
-0.000173198
0.0129149
-0.000156881
0.0129649
-0.000142958
0.0130096
-0.000130919
0.0130498
-0.00012037
0.0130861
-0.000111017
0.013119
-0.000102643
0.013149
-9.50834e-05
0.0131764
-8.82165e-05
0.0132014
-8.19471e-05
0.0132243
-7.62014e-05
0.0132454
-7.09199e-05
0.0132648
-6.60535e-05
0.0132826
-6.15604e-05
0.0132991
-5.74041e-05
0.0133144
-5.35519e-05
0.0133284
-4.99741e-05
0.0133415
-4.66434e-05
0.0133536
-4.35344e-05
0.0133647
-4.0623e-05
0.0133751
-3.78858e-05
0.0133847
-3.53001e-05
0.0133936
-3.28435e-05
0.0134017
-3.04948e-05
0.0134092
-2.82339e-05
0.0134161
-2.60432e-05
0.0134223
-2.39085e-05
0.0134279
-2.18196e-05
0.0134329
-1.97717e-05
0.0134373
-1.7765e-05
0.0134412
-1.58057e-05
0.0134444
-1.39047e-05
0.0134472
-1.20771e-05
0.0134495
-1.0341e-05
0.0134513
-8.71547e-06
0.0134528
-7.21886e-06
0.0134539
-5.86704e-06
0.0134547
-4.67155e-06
0.0134553
-3.63838e-06
0.0134557
-2.76728e-06
0.0134559
-2.05191e-06
0.0134561
-1.48054e-06
0.0134562
-1.03737e-06
0.0134562
-7.04082e-07
0.0134562
-4.61492e-07
0.0134562
-2.90947e-07
0.0134562
-1.75454e-07
0.0134562
-1.00384e-07
0.0134562
-5.37851e-08
0.0134562
-2.63702e-08
0.0134562
-1.1267e-08
0.0134562
-3.64422e-09
0.0134562
-3.1597e-10
0.0134562
9.08946e-10
0.0134562
1.01687e-09
0.0134562
7.51005e-10
0.0134562
4.34528e-10
0.0134562
1.87033e-10
0.0134562
2.74853e-11
0.0134562
-5.56221e-11
0.0134562
-8.2412e-11
0.0134562
-7.83711e-11
0.0134562
-6.33317e-11
0.0134562
-4.6843e-11
0.0134562
-3.15014e-11
0.0134562
-1.90596e-11
0.0134562
-1.04664e-11
0.0134562
-5.74059e-12
0.0134562
-3.76464e-12
0.0134562
-2.971e-12
0.0134562
-2.75423e-12
0.0134562
-2.51906e-12
0.0134562
-1.89064e-12
0.0134562
-9.45074e-13
0.0134562
1.75374e-13
0.0134562
1.77303e-12
0.0134562
2.90753e-12
0.0134562
2.56937e-12
0.0134562
1.69035e-12
0.0134562
1.34447e-12
0.0134562
1.10914e-12
0.0134562
3.18583e-13
0.0134562
-7.72771e-13
0.0134562
-1.23901e-12
0.0134562
-1.07631e-12
0.0134562
-6.30155e-13
0.0134562
-4.23595e-13
0.0134562
-2.7386e-13
0.0134562
-2.64143e-13
0.0134562
-5.62963e-13
0.0134562
-9.79462e-13
0.0134562
-1.01056e-12
0.0134562
-5.87974e-13
0.0134562
-1.06197e-13
0.0134562
-2.3002e-13
0.0134562
-1.17107e-12
0.0134562
-2.36341e-12
0.0134562
-2.90167e-12
0.0134562
-2.55228e-12
0.0134562
-1.96121e-12
0.0134562
-1.20736e-12
0.0134562
2.32966e-13
0.0134562
2.21669e-12
0.0134562
3.83189e-12
0.0134562
4.223e-12
0.0134562
3.53892e-12
0.0134562
2.23411e-12
0.0134562
2.83749e-13
0.0134562
-1.76188e-12
0.0134562
-3.38126e-12
0.0134562
-3.49731e-12
0.0134562
-1.69479e-12
0.0134562
1.04027e-12
0.0134562
2.22843e-12
0.0134562
9.2209e-13
0.0134562
-1.26526e-12
0.0134562
-1.33134e-12
0.0134562
9.53877e-13
0.0134562
2.8714e-12
0.0134562
2.49249e-12
0.0134562
-9.02551e-13
0.0134562
-4.30053e-12
0.0134562
-3.39433e-12
0.0134562
2.18841e-12
0.0134562
7.53456e-12
0.0134562
4.77385e-12
0.0134562
-2.96411e-12
0.0134562
-6.82358e-12
0.0134562
-3.7039e-12
0.0134562
-3.32983e-12
0.0134562
-8.93299e-12
0.0134562
-4.24993e-12
0.0134562
-3.50442e-12
0.0134562
4.64113e-12
-1.99685e-12
0.0101711
-0.000326946
0.0104732
-0.000717559
0.0107747
-0.000847477
0.0110406
-0.000850383
0.0112685
-0.000810501
0.0114512
-0.000742277
0.0115865
-0.000654645
0.0116798
-0.000560625
0.0117389
-0.000471526
0.0117714
-0.000393394
0.011784
-0.000327847
0.0117821
-0.000274298
0.0117703
-0.000231338
0.0117519
-0.0001973
0.0117296
-0.000170142
0.0117048
-0.00014849
0.0116791
-0.000131101
0.011653
-0.000116938
0.0116273
-0.000105206
0.0116023
-9.53136e-05
0.0115781
-8.68339e-05
0.0115549
-7.94575e-05
0.0115328
-7.29611e-05
0.0115118
-6.71819e-05
0.0114918
-6.19996e-05
0.0114729
-5.73235e-05
0.0114551
-5.30835e-05
0.0114383
-4.92237e-05
0.0114224
-4.56979e-05
0.0114075
-4.24674e-05
0.0113934
-3.94984e-05
0.0113802
-3.67615e-05
0.0113678
-3.42302e-05
0.0113561
-3.18803e-05
0.0113452
-2.96894e-05
0.0113349
-2.7636e-05
0.0113253
-2.56997e-05
0.0113164
-2.38608e-05
0.011308
-2.21009e-05
0.0113001
-2.04033e-05
0.0112928
-1.87539e-05
0.0112861
-1.71424e-05
0.0112798
-1.55625e-05
0.0112741
-1.40128e-05
0.0112688
-1.24967e-05
0.011264
-1.10222e-05
0.0112597
-9.60076e-06
0.0112559
-8.24664e-06
0.0112525
-6.97498e-06
0.0112496
-5.80047e-06
0.0112471
-4.7358e-06
0.011245
-3.79046e-06
0.0112433
-2.96975e-06
0.011242
-2.27413e-06
0.0112409
-1.69936e-06
0.0112401
-1.23703e-06
0.0112395
-8.75523e-07
0.011239
-6.01125e-07
0.0112387
-3.99281e-07
0.0112385
-2.55664e-07
0.0112384
-1.57055e-07
0.0112383
-9.19215e-08
0.0112383
-5.07141e-08
0.0112382
-2.59011e-08
0.0112382
-1.18107e-08
0.0112382
-4.39267e-09
0.0112382
-8.51343e-10
0.0112382
4.08112e-10
0.0112382
7.46928e-10
0.0112382
6.53942e-10
0.0112382
4.33702e-10
0.0112382
2.26075e-10
0.0112382
7.73703e-11
0.0112382
-7.22993e-12
0.0112382
-4.50341e-11
0.0112382
-5.4844e-11
0.0112382
-4.883e-11
0.0112382
-3.68922e-11
0.0112382
-2.58392e-11
0.0112382
-1.73144e-11
0.0112382
-1.0072e-11
0.0112382
-4.93981e-12
0.0112382
-2.97478e-12
0.0112382
-2.68147e-12
0.0112382
-2.42527e-12
0.0112382
-2.24421e-12
0.0112382
-2.1171e-12
0.0112382
-1.55863e-12
0.0112382
-2.47056e-13
0.0112382
1.15974e-12
0.0112382
1.99641e-12
0.0112382
2.34006e-12
0.0112382
2.09323e-12
0.0112382
1.27162e-12
0.0112382
5.21112e-13
0.0112382
3.13321e-13
0.0112382
-1.80039e-13
0.0112382
-1.18556e-12
0.0112382
-1.60739e-12
0.0112382
-8.55628e-13
0.0112382
-7.67406e-14
0.0112382
-1.99759e-13
0.0112382
-5.29663e-13
0.0112382
-3.25012e-13
0.0112382
-9.59811e-14
0.0112382
-3.32538e-13
0.0112382
-4.74299e-13
0.0112382
-2.56855e-13
0.0112382
-2.096e-13
0.0112382
-7.47412e-13
0.0112382
-1.65214e-12
0.0112382
-2.19358e-12
0.0112382
-2.32018e-12
0.0112382
-2.15812e-12
0.0112382
-1.6291e-12
0.0112382
-5.95221e-13
0.0112382
7.52094e-13
0.0112382
1.98923e-12
0.0112382
3.13001e-12
0.0112382
3.66568e-12
0.0112382
2.77228e-12
0.0112382
9.85197e-13
0.0112382
-7.74237e-13
0.0112382
-2.06246e-12
0.0112382
-2.70312e-12
0.0112382
-2.12719e-12
0.0112382
-2.91975e-13
0.0112382
1.23532e-12
0.0112382
1.30628e-12
0.0112382
-1.72711e-13
0.0112382
-1.31696e-12
0.0112382
-3.40199e-13
0.0112382
1.38283e-12
0.0112382
2.17287e-12
0.0112382
4.11267e-13
0.0112382
-2.76411e-12
0.0112382
-3.30372e-12
0.0112382
6.51447e-13
0.0112382
4.66234e-12
0.0112382
3.0688e-12
0.0112382
-2.69937e-12
0.0112382
-2.54204e-12
0.0112382
4.54875e-12
0.0112382
3.31725e-12
0.0112382
-2.8922e-12
0.0112382
-4.1236e-12
0.0112382
-2.4178e-12
0.0112382
-2.13429e-12
0.0112382
3.61136e-12
-1.02108e-11
0.0102853
-0.000612233
0.010502
-0.000934222
0.010561
-0.000906489
0.0105323
-0.000821727
0.0104404
-0.000718563
0.0102934
-0.000595323
0.0101153
-0.000476506
0.00992525
-0.000370605
0.00973609
-0.00028236
0.00955532
-0.000212629
0.00938717
-0.000159696
0.00923369
-0.000120812
0.00909533
-9.29808e-05
0.00897142
-7.33913e-05
0.00886095
-5.96744e-05
0.0087625
-5.00353e-05
0.00867456
-4.31618e-05
0.00859574
-3.81186e-05
0.0085248
-3.42657e-05
0.00846067
-3.11847e-05
0.00840245
-2.8612e-05
0.00834938
-2.63866e-05
0.00830083
-2.44112e-05
0.00825627
-2.26276e-05
0.00821527
-2.10002e-05
0.00817746
-1.9507e-05
0.00814251
-1.81328e-05
0.00811015
-1.68661e-05
0.00808015
-1.56977e-05
0.0080523
-1.4619e-05
0.00802642
-1.36219e-05
0.00800236
-1.26988e-05
0.00797997
-1.18424e-05
0.00795914
-1.10454e-05
0.00793975
-1.03009e-05
0.00792171
-9.60174e-06
0.00790496
-8.94099e-06
0.00788941
-8.31179e-06
0.00787501
-7.70765e-06
0.00786173
-7.12274e-06
0.00784953
-6.55222e-06
0.00783838
-5.99263e-06
0.00782826
-5.44213e-06
0.00781915
-4.90069e-06
0.00781102
-4.37005e-06
0.00780385
-3.85355e-06
0.00779761
-3.35575e-06
0.00779224
-2.88191e-06
0.00778771
-2.43739e-06
0.00778393
-2.02701e-06
0.00778085
-1.65473e-06
0.00777839
-1.32416e-06
0.00777645
-1.03747e-06
0.00777497
-7.94752e-07
0.00777387
-5.94369e-07
0.00777307
-4.33251e-07
0.0077725
-3.07247e-07
0.00777211
-2.11529e-07
0.00777185
-1.4101e-07
0.00777168
-9.07157e-08
0.00777158
-5.60652e-08
0.00777152
-3.30735e-08
0.00777149
-1.84433e-08
0.00777148
-9.56375e-09
0.00777147
-4.47336e-09
0.00777147
-1.74674e-09
0.00777147
-4.26745e-10
0.00777147
9.99109e-11
0.00777147
2.45095e-10
0.00777147
2.28069e-10
0.00777147
1.58576e-10
0.00777147
8.67991e-11
0.00777147
3.41998e-11
0.00777147
2.56938e-12
0.00777147
-1.1242e-11
0.00777147
-1.68813e-11
0.00777147
-1.57886e-11
0.00777147
-1.1774e-11
0.00777147
-8.70058e-12
0.00777147
-6.43869e-12
0.00777147
-3.65757e-12
0.00777147
-1.48471e-12
0.00777147
-1.04377e-12
0.00777147
-1.66351e-12