/*--------------------------------*- C++ -*----------------------------------*\
  =========                 |
  \\      /  F ield         | OpenFOAM: The Open Source CFD Toolbox
   \\    /   O peration     | Website:  https://openfoam.org
    \\  /    A nd           | Version:  7
     \\/     M anipulation  |
\*---------------------------------------------------------------------------*/
FoamFile
{
    version     2.0;
    format      ascii;
    class       volVectorField;
    location    "5";
    object      U;
}
// * * * * * * * * * * * * * * * * * * * * * * * * * * * * * * * * * * * * * //

dimensions      [0 1 -1 0 0 0 0];

internalField   nonuniform List<vector> 
1500
(
(1.00046 -0.00322028 0)
(1.01239 -0.00877588 0)
(1.03419 -0.0123004 0)
(1.06242 -0.0138676 0)
(1.09278 -0.0142764 0)
(1.12254 -0.0140884 0)
(1.15063 -0.0135033 0)
(1.17669 -0.012618 0)
(1.20052 -0.0115724 0)
(1.22197 -0.0105039 0)
(1.2411 -0.00950146 0)
(1.25815 -0.00860423 0)
(1.2734 -0.00782026 0)
(1.28714 -0.00714313 0)
(1.2996 -0.00655967 0)
(1.31098 -0.00605507 0)
(1.32143 -0.00561529 0)
(1.33107 -0.00522781 0)
(1.34 -0.00488201 0)
(1.34829 -0.00456948 0)
(1.35602 -0.00428383 0)
(1.36322 -0.00402039 0)
(1.36995 -0.00377574 0)
(1.37624 -0.00354739 0)
(1.38212 -0.0033335 0)
(1.38762 -0.0031327 0)
(1.39277 -0.00294391 0)
(1.39758 -0.00276628 0)
(1.4021 -0.00259904 0)
(1.40632 -0.00244155 0)
(1.41028 -0.00229317 0)
(1.41399 -0.0021533 0)
(1.41746 -0.00202132 0)
(1.42071 -0.00189664 0)
(1.42375 -0.00177865 0)
(1.42659 -0.00166674 0)
(1.42925 -0.00156027 0)
(1.43173 -0.00145858 0)
(1.43405 -0.00136101 0)
(1.4362 -0.00126691 0)
(1.43819 -0.00117567 0)
(1.44004 -0.00108674 0)
(1.44173 -0.000999706 0)
(1.44328 -0.000914289 0)
(1.44469 -0.000830382 0)
(1.44595 -0.000748065 0)
(1.44708 -0.000667605 0)
(1.44808 -0.000589441 0)
(1.44894 -0.000514161 0)
(1.44969 -0.000442456 0)
(1.45032 -0.00037507 0)
(1.45084 -0.000312736 0)
(1.45127 -0.000256105 0)
(1.45161 -0.000205676 0)
(1.45188 -0.000161747 0)
(1.45209 -0.000124375 0)
(1.45224 -9.33751e-05 0)
(1.45235 -6.83371e-05 0)
(1.45243 -4.8674e-05 0)
(1.45248 -3.36791e-05 0)
(1.45252 -2.25909e-05 0)
(1.45254 -1.46529e-05 0)
(1.45256 -9.16136e-06 0)
(1.45256 -5.49856e-06 0)
(1.45257 -3.15032e-06 0)
(1.45257 -1.7094e-06 0)
(1.45257 -8.67763e-07 0)
(1.45257 -4.03283e-07 0)
(1.45257 -1.63167e-07 0)
(1.45257 -5.30231e-08 0)
(1.45257 -9.3663e-09 0)
(1.45257 3.24905e-09 0)
(1.45257 3.57041e-09 0)
(1.45257 3.71176e-10 0)
(1.45257 -2.55088e-09 0)
(1.45257 -3.91712e-09 0)
(1.45257 -3.9427e-09 0)
(1.45257 -3.39742e-09 0)
(1.45257 -2.73483e-09 0)
(1.45257 -1.96524e-09 0)
(1.45257 -1.17294e-09 0)
(1.45257 -6.33295e-10 0)
(1.45257 -4.11595e-10 0)
(1.45257 -2.9427e-10 0)
(1.45257 -1.66528e-10 0)
(1.45257 -1.01738e-10 0)
(1.45257 -1.05605e-10 0)
(1.45257 -8.74862e-11 0)
(1.45257 -4.5224e-11 0)
(1.45257 -3.38188e-12 0)
(1.45257 6.78614e-11 0)
(1.45257 1.44512e-10 0)
(1.45257 1.47061e-10 0)
(1.45257 8.42429e-11 0)
(1.45257 4.39302e-11 0)
(1.45257 4.2258e-11 0)
(1.45257 3.73433e-12 0)
(1.45257 -8.32032e-11 0)
(1.45257 -1.31473e-10 0)
(1.45257 -1.08584e-10 0)
(1.45257 -4.90647e-11 0)
(1.45257 -4.68036e-12 0)
(1.45257 7.90022e-12 0)
(1.45257 3.62018e-12 0)
(1.45257 1.83945e-11 0)
(1.45257 6.03596e-11 0)
(1.45257 9.59168e-11 0)
(1.45257 9.82343e-11 0)
(1.45257 8.20311e-11 0)
(1.45257 6.82974e-11 0)
(1.45257 4.86088e-11 0)
(1.45257 2.15066e-11 0)
(1.45257 1.16871e-11 0)
(1.45257 4.00898e-11 0)
(1.45257 5.77302e-11 0)
(1.45257 3.92048e-11 0)
(1.45257 9.30476e-12 0)
(1.45257 -9.0856e-13 0)
(1.45257 -1.23469e-11 0)
(1.45257 -5.64976e-11 0)
(1.45257 -1.01864e-10 0)
(1.45257 -1.09999e-10 0)
(1.45257 -8.77737e-11 0)
(1.45257 -6.86385e-11 0)
(1.45257 -5.82175e-11 0)
(1.45257 -2.7841e-11 0)
(1.45257 3.16904e-11 0)
(1.45257 9.24723e-11 0)
(1.45257 1.01548e-10 0)
(1.45257 1.0323e-10 0)
(1.45257 1.17702e-10 0)
(1.45257 1.26709e-10 0)
(1.45257 8.63206e-11 0)
(1.45257 -3.40848e-11 0)
(1.45257 -1.32644e-10 0)
(1.45257 -2.15512e-10 0)
(1.45257 -3.90254e-10 0)
(1.45257 -3.49534e-10 0)
(1.45257 -1.57514e-10 0)
(1.45257 5.70442e-11 0)
(1.45257 1.45778e-10 0)
(1.45257 -2.34276e-11 0)
(1.45257 2.53055e-11 0)
(1.45257 2.3221e-10 0)
(1.45257 3.66149e-10 0)
(1.45257 3.69899e-10 0)
(1.45257 4.29321e-10 0)
(1.45257 7.8014e-12 0)
(1.45257 -5.81221e-10 0)
(1.45257 -5.50925e-10 0)
(1.00056 -0.0107264 0)
(1.01593 -0.0280185 0)
(1.04218 -0.0380259 0)
(1.07349 -0.0421349 0)
(1.10484 -0.0430351 0)
(1.13403 -0.0421632 0)
(1.16045 -0.0400181 0)
(1.18392 -0.0369852 0)
(1.20434 -0.0335461 0)
(1.22177 -0.0301142 0)
(1.2365 -0.0269357 0)
(1.24891 -0.0241105 0)
(1.25943 -0.0216535 0)
(1.26843 -0.0195424 0)
(1.2762 -0.0177348 0)
(1.28297 -0.0161835 0)
(1.28892 -0.0148436 0)
(1.29418 -0.0136748 0)
(1.29888 -0.0126435 0)
(1.3031 -0.0117233 0)
(1.3069 -0.0108937 0)
(1.31035 -0.0101396 0)
(1.31348 -0.00944941 0)
(1.31634 -0.00881442 0)
(1.31895 -0.00822792 0)
(1.32134 -0.00768462 0)
(1.32354 -0.00718029 0)
(1.32556 -0.00671139 0)
(1.32741 -0.0062749 0)
(1.32913 -0.00586811 0)
(1.33071 -0.00548857 0)
(1.33217 -0.00513398 0)
(1.33353 -0.00480218 0)
(1.33478 -0.0044911 0)
(1.33594 -0.00419874 0)
(1.33702 -0.00392312 0)
(1.33801 -0.00366227 0)
(1.33893 -0.00341421 0)
(1.33978 -0.00317698 0)
(1.34057 -0.00294872 0)
(1.34128 -0.00272771 0)
(1.34194 -0.00251251 0)
(1.34253 -0.00230203 0)
(1.34306 -0.00209561 0)
(1.34353 -0.00189307 0)
(1.34394 -0.00169475 0)
(1.3443 -0.00150148 0)
(1.3446 -0.00131453 0)
(1.34485 -0.00113553 0)
(1.34505 -0.000966325 0)
(1.34522 -0.000808831 0)
(1.34534 -0.000664825 0)
(1.34544 -0.000535768 0)
(1.3455 -0.000422636 0)
(1.34555 -0.000325813 0)
(1.34558 -0.000245049 0)
(1.3456 -0.000179493 0)
(1.34561 -0.000127793 0)
(1.34562 -8.82386e-05 0)
(1.34562 -5.89291e-05 0)
(1.34562 -3.79347e-05 0)
(1.34562 -2.3431e-05 0)
(1.34562 -1.37962e-05 0)
(1.34562 -7.66692e-06 0)
(1.34562 -3.9548e-06 0)
(1.34562 -1.8338e-06 0)
(1.34562 -7.08758e-07 0)
(1.34562 -1.74539e-07 0)
(1.34562 3.62935e-08 0)
(1.34562 9.15289e-08 0)
(1.34562 8.17869e-08 0)
(1.34562 5.30111e-08 0)
(1.34562 2.58825e-08 0)
(1.34562 6.78437e-09 0)
(1.34562 -3.87249e-09 0)
(1.34562 -8.17755e-09 0)
(1.34562 -8.61807e-09 0)
(1.34562 -7.22116e-09 0)
(1.34562 -5.34932e-09 0)
(1.34562 -3.61762e-09 0)
(1.34562 -2.18992e-09 0)
(1.34562 -1.19105e-09 0)
(1.34562 -6.31063e-10 0)
(1.34562 -3.46187e-10 0)
(1.34562 -2.37605e-10 0)
(1.34562 -2.52309e-10 0)
(1.34562 -2.83288e-10 0)
(1.34562 -2.58056e-10 0)
(1.34562 -1.64707e-10 0)
(1.34562 -2.83395e-11 0)
(1.34562 1.03017e-10 0)
(1.34562 2.15663e-10 0)
(1.34562 2.83715e-10 0)
(1.34562 2.64004e-10 0)
(1.34562 1.8824e-10 0)
(1.34562 9.9076e-11 0)
(1.34562 1.42303e-11 0)
(1.34562 -7.71878e-11 0)
(1.34562 -1.57498e-10 0)
(1.34562 -1.80424e-10 0)
(1.34562 -1.33914e-10 0)
(1.34562 -5.6466e-11 0)
(1.34562 1.11368e-11 0)
(1.34562 4.49633e-11 0)
(1.34562 4.3668e-11 0)
(1.34562 3.59046e-11 0)
(1.34562 3.64746e-11 0)
(1.34562 4.96621e-11 0)
(1.34562 7.85517e-11 0)
(1.34562 1.1124e-10 0)
(1.34562 9.91375e-11 0)
(1.34562 2.07289e-11 0)
(1.34562 -6.55912e-11 0)
(1.34562 -9.70182e-11 0)
(1.34562 -9.00867e-11 0)
(1.34562 -8.86189e-11 0)
(1.34562 -9.95462e-11 0)
(1.34562 -8.26467e-11 0)
(1.34562 -1.01547e-11 0)
(1.34562 8.89448e-11 0)
(1.34562 1.42314e-10 0)
(1.34562 1.17768e-10 0)
(1.34562 4.40225e-11 0)
(1.34562 -6.54992e-11 0)
(1.34562 -1.78255e-10 0)
(1.34562 -2.68191e-10 0)
(1.34562 -2.64177e-10 0)
(1.34562 -7.1681e-11 0)
(1.34562 2.51522e-10 0)
(1.34562 4.72872e-10 0)
(1.34562 3.76081e-10 0)
(1.34562 8.81727e-11 0)
(1.34562 -7.9773e-11 0)
(1.34562 -3.57197e-11 0)
(1.34562 5.51772e-11 0)
(1.34562 -6.29317e-11 0)
(1.34562 -5.02925e-10 0)
(1.34562 -8.13634e-10 0)
(1.34562 -5.81496e-10 0)
(1.34562 4.27546e-11 0)
(1.34562 5.92854e-10 0)
(1.34562 4.59396e-10 0)
(1.34562 -1.46979e-11 0)
(1.34562 3.21769e-11 0)
(1.34562 5.23211e-10 0)
(1.34562 2.26495e-10 0)
(1.34562 -1.84469e-10 0)
(1.34562 -4.48743e-10 0)
(1.34562 3.6229e-11 0)
(1.34562 -5.83064e-10 0)
(1.00109 -0.0224478 0)
(1.02553 -0.0539474 0)
(1.05878 -0.0683459 0)
(1.09057 -0.0726597 0)
(1.11664 -0.0722635 0)
(1.13706 -0.0688935 0)
(1.1527 -0.0633367 0)
(1.16412 -0.0565643 0)
(1.1718 -0.0495611 0)
(1.17636 -0.0430024 0)
(1.1785 -0.0372 0)
(1.17887 -0.0322232 0)
(1.17803 -0.0280274 0)
(1.17639 -0.0245229 0)
(1.17426 -0.0216117 0)
(1.17184 -0.0191938 0)
(1.16927 -0.0171737 0)
(1.16665 -0.0154689 0)
(1.16404 -0.0140126 0)
(1.16148 -0.0127537 0)
(1.15901 -0.0116535 0)
(1.15664 -0.0106829 0)
(1.15437 -0.00981962 0)
(1.15221 -0.0090467 0)
(1.15016 -0.00835077 0)
(1.14822 -0.00772125 0)
(1.14638 -0.0071496 0)
(1.14465 -0.00662879 0)
(1.14302 -0.00615289 0)
(1.14148 -0.00571679 0)
(1.14003 -0.00531606 0)
(1.13866 -0.00494676 0)
(1.13738 -0.00460537 0)
(1.13618 -0.00428869 0)
(1.13505 -0.00399373 0)
(1.13399 -0.00371769 0)
(1.133 -0.00345786 0)
(1.13207 -0.00321164 0)
(1.1312 -0.00297658 0)
(1.13039 -0.00275039 0)
(1.12964 -0.00253114 0)
(1.12894 -0.00231726 0)
(1.12829 -0.00210774 0)
(1.12769 -0.00190216 0)
(1.12713 -0.00170073 0)
(1.12663 -0.0015043 0)
(1.12618 -0.00131427 0)
(1.12577 -0.00113244 0)
(1.12541 -0.000960825 0)
(1.1251 -0.000801469 0)
(1.12483 -0.00065622 0)
(1.1246 -0.000526556 0)
(1.12441 -0.000413419 0)
(1.12426 -0.000317097 0)
(1.12414 -0.000237204 0)
(1.12405 -0.000172744 0)
(1.12398 -0.000122223 0)
(1.12392 -8.38197e-05 0)
(1.12389 -5.55535e-05 0)
(1.12386 -3.54487e-05 0)
(1.12385 -2.16647e-05 0)
(1.12384 -1.25851e-05 0)
(1.12383 -6.86601e-06 0)
(1.12383 -3.4451e-06 0)
(1.12382 -1.52339e-06 0)
(1.12382 -5.28861e-07 0)
(1.12382 -7.17923e-08 0)
(1.12382 1.00212e-07 0)
(1.12382 1.30337e-07 0)
(1.12382 1.05485e-07 0)
(1.12382 6.71975e-08 0)
(1.12382 3.39617e-08 0)
(1.12382 1.12575e-08 0)
(1.12382 -1.39271e-09 0)
(1.12382 -6.80112e-09 0)
(1.12382 -7.99123e-09 0)
(1.12382 -6.98569e-09 0)
(1.12382 -5.16695e-09 0)
(1.12382 -3.42452e-09 0)
(1.12382 -2.09361e-09 0)
(1.12382 -1.19437e-09 0)
(1.12382 -6.24411e-10 0)
(1.12382 -2.92678e-10 0)
(1.12382 -2.18641e-10 0)
(1.12382 -3.18901e-10 0)
(1.12382 -3.87999e-10 0)
(1.12382 -3.50575e-10 0)
(1.12382 -2.38397e-10 0)
(1.12382 -5.71194e-11 0)
(1.12382 1.41408e-10 0)
(1.12382 2.82297e-10 0)
(1.12382 3.72323e-10 0)
(1.12382 4.19065e-10 0)
(1.12382 3.65862e-10 0)
(1.12382 1.88596e-10 0)
(1.12382 -1.21258e-11 0)
(1.12382 -1.35573e-10 0)
(1.12382 -2.18703e-10 0)
(1.12382 -2.94237e-10 0)
(1.12382 -3.01124e-10 0)
(1.12382 -1.95019e-10 0)
(1.12382 -5.28844e-11 0)
(1.12382 -2.8101e-12 0)
(1.12382 -4.54243e-11 0)
(1.12382 -7.6859e-11 0)
(1.12382 -4.61345e-11 0)
(1.12382 9.41837e-12 0)
(1.12382 4.32036e-11 0)
(1.12382 3.59144e-11 0)
(1.12382 -2.78757e-11 0)
(1.12382 -1.41137e-10 0)
(1.12382 -2.43936e-10 0)
(1.12382 -2.70852e-10 0)
(1.12382 -2.27808e-10 0)
(1.12382 -1.53007e-10 0)
(1.12382 -6.62747e-11 0)
(1.12382 5.66325e-11 0)
(1.12382 2.0253e-10 0)
(1.12382 3.13988e-10 0)
(1.12382 3.28895e-10 0)
(1.12382 2.17779e-10 0)
(1.12382 1.92185e-12 0)
(1.12382 -2.46007e-10 0)
(1.12382 -4.28479e-10 0)
(1.12382 -4.96201e-10 0)
(1.12382 -4.12063e-10 0)
(1.12382 -1.11591e-10 0)
(1.12382 3.3305e-10 0)
(1.12382 5.96559e-10 0)
(1.12382 4.85408e-10 0)
(1.12382 1.56969e-10 0)
(1.12382 -2.2818e-11 0)
(1.12382 8.39857e-11 0)
(1.12382 2.17176e-10 0)
(1.12382 2.70066e-11 0)
(1.12382 -5.19303e-10 0)
(1.12382 -1.03568e-09 0)
(1.12382 -8.69893e-10 0)
(1.12382 7.54094e-11 0)
(1.12382 8.53886e-10 0)
(1.12382 7.68902e-10 0)
(1.12382 3.10751e-12 0)
(1.12382 -4.38682e-10 0)
(1.12382 1.86885e-10 0)
(1.12382 4.09554e-10 0)
(1.12382 -1.11781e-10 0)
(1.12382 5.91296e-10 0)
(1.12382 6.65422e-10 0)
(1.12382 9.58698e-10 0)
(1.12382 -5.48811e-10 0)
(1.00086 -0.053703 0)
(1.0315 -0.0984002 0)
(1.05406 -0.106345 0)
(1.05901 -0.102383 0)
(1.05111 -0.0943727 0)
(1.03725 -0.0837419 0)
(1.02055 -0.0714304 0)
(1.00228 -0.0589075 0)
(0.983386 -0.047422 0)
(0.964772 -0.0376081 0)
(0.947155 -0.0296082 0)
(0.93094 -0.0233046 0)
(0.916272 -0.0184673 0)
(0.903124 -0.0148269 0)
(0.891397 -0.0121247 0)
(0.880955 -0.0101298 0)
(0.871649 -0.00864961 0)
(0.86333 -0.00753382 0)
(0.855863 -0.00667217 0)
(0.849129 -0.00598717 0)
(0.84303 -0.00542597 0)
(0.837481 -0.00495314 0)
(0.832413 -0.00454513 0)
(0.82777 -0.00418631 0)
(0.823501 -0.00386626 0)
(0.819569 -0.00357789 0)
(0.815937 -0.00331623 0)
(0.812578 -0.00307761 0)
(0.809465 -0.00285922 0)
(0.806577 -0.00265872 0)
(0.803894 -0.00247414 0)
(0.8014 -0.00230373 0)
(0.799081 -0.00214589 0)
(0.796922 -0.00199915 0)
(0.794913 -0.00186208 0)
(0.793044 -0.00173331 0)
(0.791305 -0.00161151 0)
(0.789691 -0.00149538 0)
(0.788195 -0.00138373 0)
(0.786812 -0.00127549 0)
(0.785539 -0.00116982 0)
(0.784372 -0.00106616 0)
(0.78331 -0.000964235 0)
(0.782349 -0.000864145 0)
(0.781488 -0.000766302 0)
(0.780724 -0.00067141 0)
(0.780055 -0.000580397 0)
(0.779475 -0.000494325 0)
(0.778982 -0.000414277 0)
(0.778568 -0.000341238 0)
(0.778227 -0.000275957 0)
(0.777951 -0.000218842 0)
(0.777733 -0.000169961 0)
(0.777564 -0.000129085 0)
(0.777436 -9.5732e-05 0)
(0.777342 -6.92117e-05 0)
(0.777275 -4.86905e-05 0)
(0.777228 -3.32599e-05 0)
(0.777196 -2.20025e-05 0)
(0.777175 -1.40492e-05 0)
(0.777163 -8.62022e-06 0)
(0.777155 -5.05041e-06 0)
(0.777151 -2.7987e-06 0)
(0.777148 -1.44438e-06 0)
(0.777147 -6.74725e-07 0)
(0.777147 -2.67701e-07 0)
(0.777147 -7.2255e-08 0)
(0.777147 1.0498e-08 0)
(0.777147 3.55761e-08 0)
(0.777147 3.29267e-08 0)
(0.777147 2.22005e-08 0)
(0.777147 1.17195e-08 0)
(0.777147 4.09004e-09 0)
(0.777147 -3.63138e-10 0)
(0.777147 -2.34789e-09 0)
(0.777147 -2.7812e-09 0)
(0.777147 -2.50515e-09 0)
(0.777147 -1.91983e-09 0)
(0.777147 -1.24852e-09 0)
(0.777147 -7.45268e-10 0)
(0.777147 -4.82309e-10 0)
(0.777147 -3.04098e-10 0)
(0.777147 -1.68361e-10 0)
(0.777147 -1.68543e-10 0)
(0.777147 -2.44912e-10 0)
(0.777147 -2.43591e-10 0)
(0.777147 -1.5063e-10 0)
(0.777147 -3.82773e-11 0)
(0.777147 6.36679e-11 0)
(0.777147 1.52308e-10 0)
(0.777147 2.17682e-10 0)
(0.777147 2.43877e-10 0)
(0.777147 2.18159e-10 0)
(0.777147 1.32737e-10 0)
(0.777147 9.45014e-12 0)
(0.777147 -9.69622e-11 0)
(0.777147 -1.46511e-10 0)
(0.777147 -1.46195e-10 0)
(0.777147 -1.36522e-10 0)
(0.777147 -1.15013e-10 0)
(0.777147 -4.97293e-11 0)
(0.777147 2.90207e-11 0)
(0.777147 4.20764e-11 0)
(0.777147 -9.82685e-12 0)
(0.777147 -3.68732e-11 0)
(0.777147 -1.34438e-11 0)
(0.777147 -3.59962e-12 0)
(0.777147 -3.99884e-11 0)
(0.777147 -8.03228e-11 0)
(0.777147 -1.03404e-10 0)
(0.777147 -1.32405e-10 0)
(0.777147 -1.6349e-10 0)
(0.777147 -1.59573e-10 0)
(0.777147 -1.19587e-10 0)
(0.777147 -7.51286e-11 0)
(0.777147 -1.92206e-11 0)
(0.777147 6.88623e-11 0)
(0.777147 1.59084e-10 0)
(0.777147 2.05335e-10 0)
(0.777147 1.92227e-10 0)
(0.777147 9.81115e-11 0)
(0.777147 -7.05142e-11 0)
(0.777147 -2.58405e-10 0)
(0.777147 -3.53093e-10 0)
(0.777147 -3.03774e-10 0)
(0.777147 -1.13807e-10 0)
(0.777147 1.37444e-10 0)
(0.777147 3.15823e-10 0)
(0.777147 3.13535e-10 0)
(0.777147 1.58821e-10 0)
(0.777147 4.60171e-12 0)
(0.777147 -2.10583e-11 0)
(0.777147 3.69084e-11 0)
(0.777147 4.04987e-11 0)
(0.777147 -1.44968e-10 0)
(0.777147 -4.03644e-10 0)
(0.777147 -4.73149e-10 0)
(0.777147 -1.06058e-10 0)
(0.777147 4.2085e-10 0)
(0.777147 3.70853e-10 0)
(0.777147 -2.07805e-10 0)
(0.777147 -4.20255e-10 0)
(0.777147 -1.04073e-10 0)
(0.777147 9.0042e-12 0)
(0.777147 -2.52689e-10 0)
(0.777147 -8.85974e-11 0)
(0.777147 4.26815e-10 0)
(0.777147 3.28717e-11 0)
(0.777147 1.52296e-10 0)
(0.777147 -1.30834e-09 0)
(0.926666 -0.0391663 0)
(0.882391 -0.0655941 0)
(0.809159 -0.0645405 0)
(0.718109 -0.0565022 0)
(0.634383 -0.0468943 0)
(0.567019 -0.0366737 0)
(0.514326 -0.0267511 0)
(0.473009 -0.0182833 0)
(0.440937 -0.0118414 0)
(0.416523 -0.00732497 0)
(0.398172 -0.00434968 0)
(0.38436 -0.00251117 0)
(0.373829 -0.00146162 0)
(0.365621 -0.000922018 0)
(0.359046 -0.000681595 0)
(0.353615 -0.000600416 0)
(0.348994 -0.0005942 0)
(0.344957 -0.000615374 0)
(0.341357 -0.000639153 0)
(0.338098 -0.000654452 0)
(0.335118 -0.000657929 0)
(0.332375 -0.000650156 0)
(0.32984 -0.00063332 0)
(0.327493 -0.000609986 0)
(0.325315 -0.000582507 0)
(0.323293 -0.0005528 0)
(0.321414 -0.0005223 0)
(0.319666 -0.00049201 0)
(0.31804 -0.000462582 0)
(0.316526 -0.000434401 0)
(0.315115 -0.000407663 0)
(0.313801 -0.000382432 0)
(0.312575 -0.000358687 0)
(0.311431 -0.000336344 0)
(0.310365 -0.000315282 0)
(0.309371 -0.000295349 0)
(0.308444 -0.000276375 0)
(0.307582 -0.000258178 0)
(0.306781 -0.000240577 0)
(0.30604 -0.0002234 0)
(0.305357 -0.000206498 0)
(0.30473 -0.000189755 0)
(0.304159 -0.000173103 0)
(0.303642 -0.000156526 0)
(0.303179 -0.000140073 0)
(0.302768 -0.000123855 0)
(0.302409 -0.000108043 0)
(0.302098 -9.28591e-05 0)
(0.301833 -7.85543e-05 0)
(0.30161 -6.53704e-05 0)
(0.301427 -5.34922e-05 0)
(0.301279 -4.29979e-05 0)
(0.301162 -3.38943e-05 0)
(0.301071 -2.61546e-05 0)
(0.301002 -1.972e-05 0)
(0.300951 -1.45e-05 0)
(0.300915 -1.03758e-05 0)
(0.300889 -7.2085e-06 0)
(0.300872 -4.8485e-06 0)
(0.300861 -3.14588e-06 0)
(0.300853 -1.95942e-06 0)
(0.300849 -1.16332e-06 0)
(0.300847 -6.51087e-07 0)
(0.300845 -3.36944e-07 0)
(0.300845 -1.55161e-07 0)
(0.300844 -5.75811e-08 0)
(0.300844 -1.06847e-08 0)
(0.300844 6.2248e-09 0)
(0.300844 1.03473e-08 0)
(0.300844 9.26111e-09 0)
(0.300844 6.56519e-09 0)
(0.300844 3.91338e-09 0)
(0.300844 1.86887e-09 0)
(0.300844 5.39335e-10 0)
(0.300844 -2.14654e-10 0)
(0.300844 -4.65941e-10 0)
(0.300844 -4.96633e-10 0)
(0.300844 -4.19342e-10 0)
(0.300844 -2.7384e-10 0)
(0.300844 -1.65633e-10 0)
(0.300844 -1.27964e-10 0)
(0.300844 -8.98708e-11 0)
(0.300844 -5.45917e-11 0)
(0.300844 -6.88111e-11 0)
(0.300844 -9.04795e-11 0)
(0.300844 -6.32782e-11 0)
(0.300844 -1.2284e-11 0)
(0.300844 2.37096e-11 0)
(0.300844 4.35113e-11 0)
(0.300844 5.77143e-11 0)
(0.300844 6.08573e-11 0)
(0.300844 4.90799e-11 0)
(0.300844 2.80877e-11 0)
(0.300844 9.01979e-12 0)
(0.300844 -4.49765e-12 0)
(0.300844 -2.42136e-11 0)
(0.300844 -3.96375e-11 0)
(0.300844 -3.19573e-11 0)
(0.300844 -2.40542e-11 0)
(0.300844 -2.87015e-11 0)
(0.300844 -1.97412e-11 0)
(0.300844 4.88932e-12 0)
(0.300844 2.61633e-12 0)
(0.300844 -3.51037e-11 0)
(0.300844 -6.02566e-11 0)
(0.300844 -5.42278e-11 0)
(0.300844 -5.73187e-11 0)
(0.300844 -8.25045e-11 0)
(0.300844 -9.80638e-11 0)
(0.300844 -9.31174e-11 0)
(0.300844 -9.12961e-11 0)
(0.300844 -9.51601e-11 0)
(0.300844 -8.48313e-11 0)
(0.300844 -7.10284e-11 0)
(0.300844 -6.47779e-11 0)
(0.300844 -4.25893e-11 0)
(0.300844 1.44406e-11 0)
(0.300844 7.84665e-11 0)
(0.300844 1.08943e-10 0)
(0.300844 8.62157e-11 0)
(0.300844 1.2426e-11 0)
(0.300844 -7.30637e-11 0)
(0.300844 -1.21649e-10 0)
(0.300844 -1.19425e-10 0)
(0.300844 -6.71662e-11 0)
(0.300844 2.336e-11 0)
(0.300844 1.04193e-10 0)
(0.300844 1.07709e-10 0)
(0.300844 4.74165e-11 0)
(0.300844 -1.1443e-11 0)
(0.300844 -3.01085e-11 0)
(0.300844 -1.58483e-11 0)
(0.300844 -3.16386e-12 0)
(0.300844 -1.92516e-11 0)
(0.300844 -6.46099e-11 0)
(0.300844 -6.80304e-11 0)
(0.300844 3.01407e-12 0)
(0.300844 1.1946e-10 0)
(0.300844 1.01572e-10 0)
(0.300844 -1.64273e-10 0)
(0.300844 -2.86511e-10 0)
(0.300844 -8.73691e-11 0)
(0.300844 -6.66194e-11 0)
(0.300844 -3.22236e-10 0)
(0.300844 -4.98785e-11 0)
(0.300844 2.47247e-10 0)
(0.300844 -1.70233e-10 0)
(0.300844 -5.86684e-10 0)
(0.300844 -4.07921e-10 0)
(0.300844 -5.05591e-10 0)
(1.00046 0.00322028 0)
(1.01239 0.00877588 0)
(1.03419 0.0123004 0)
(1.06242 0.0138676 0)
(1.09278 0.0142764 0)
(1.12254 0.0140884 0)
(1.15063 0.0135033 0)
(1.17669 0.012618 0)
(1.20052 0.0115724 0)
(1.22197 0.0105039 0)
(1.2411 0.00950146 0)
(1.25815 0.00860423 0)
(1.2734 0.00782026 0)
(1.28714 0.00714313 0)
(1.2996 0.00655967 0)
(1.31098 0.00605507 0)
(1.32143 0.00561529 0)
(1.33107 0.00522781 0)
(1.34 0.00488201 0)
(1.34829 0.00456948 0)
(1.35602 0.00428383 0)
(1.36322 0.00402039 0)
(1.36995 0.00377574 0)
(1.37624 0.00354739 0)
(1.38212 0.0033335 0)
(1.38762 0.0031327 0)
(1.39277 0.00294391 0)
(1.39758 0.00276628 0)
(1.4021 0.00259904 0)
(1.40632 0.00244155 0)
(1.41028 0.00229317 0)
(1.41399 0.0021533 0)
(1.41746 0.00202132 0)
(1.42071 0.00189664 0)
(1.42375 0.00177865 0)
(1.42659 0.00166674 0)
(1.42925 0.00156027 0)
(1.43173 0.00145858 0)
(1.43405 0.00136101 0)
(1.4362 0.00126691 0)
(1.43819 0.00117567 0)
(1.44004 0.00108674 0)
(1.44173 0.000999706 0)
(1.44328 0.000914289 0)
(1.44469 0.000830382 0)
(1.44595 0.000748065 0)
(1.44708 0.000667605 0)
(1.44808 0.000589441 0)
(1.44894 0.00051416 0)
(1.44969 0.000442455 0)
(1.45032 0.00037507 0)
(1.45084 0.000312736 0)
(1.45127 0.000256105 0)
(1.45161 0.000205676 0)
(1.45188 0.000161747 0)
(1.45209 0.000124375 0)
(1.45224 9.33751e-05 0)
(1.45235 6.83371e-05 0)
(1.45243 4.86739e-05 0)
(1.45248 3.36789e-05 0)
(1.45252 2.25909e-05 0)
(1.45254 1.46529e-05 0)
(1.45256 9.16124e-06 0)
(1.45256 5.49846e-06 0)
(1.45257 3.15037e-06 0)
(1.45257 1.70941e-06 0)
(1.45257 8.67587e-07 0)
(1.45257 4.03155e-07 0)
(1.45257 1.63236e-07 0)
(1.45257 5.28753e-08 0)
(1.45257 8.98777e-09 0)
(1.45257 -3.56574e-09 0)
(1.45257 -3.69029e-09 0)
(1.45257 -4.21278e-10 0)
(1.45257 2.33603e-09 0)
(1.45257 3.7403e-09 0)
(1.45257 4.13727e-09 0)
(1.45257 3.81735e-09 0)
(1.45257 3.04125e-09 0)
(1.45257 2.16751e-09 0)
(1.45257 1.47045e-09 0)
(1.45257 9.84812e-10 0)
(1.45257 5.88507e-10 0)
(1.45257 2.7518e-10 0)
(1.45257 1.43765e-10 0)
(1.45257 1.28925e-10 0)
(1.45257 1.1729e-10 0)
(1.45257 1.19623e-10 0)
(1.45257 1.31709e-10 0)
(1.45257 1.02788e-10 0)
(1.45257 4.07116e-11 0)
(1.45257 -9.89064e-12 0)
(1.45257 -3.10041e-11 0)
(1.45257 -4.51715e-11 0)
(1.45257 -8.65579e-11 0)
(1.45257 -1.1592e-10 0)
(1.45257 -1.06335e-10 0)
(1.45257 -8.32718e-11 0)
(1.45257 -7.52493e-11 0)
(1.45257 -4.19776e-11 0)
(1.45257 1.91465e-11 0)
(1.45257 4.74197e-11 0)
(1.45257 2.32636e-12 0)
(1.45257 -5.59936e-11 0)
(1.45257 -3.82482e-11 0)
(1.45257 5.45485e-11 0)
(1.45257 1.38742e-10 0)
(1.45257 1.37651e-10 0)
(1.45257 6.22964e-11 0)
(1.45257 -1.58992e-11 0)
(1.45257 -4.00755e-11 0)
(1.45257 -5.32969e-12 0)
(1.45257 5.88584e-11 0)
(1.45257 1.23219e-10 0)
(1.45257 1.64848e-10 0)
(1.45257 1.56016e-10 0)
(1.45257 1.05004e-10 0)
(1.45257 3.46985e-11 0)
(1.45257 -7.11692e-11 0)
(1.45257 -2.25253e-10 0)
(1.45257 -3.56641e-10 0)
(1.45257 -3.6961e-10 0)
(1.45257 -2.44169e-10 0)
(1.45257 -5.56767e-11 0)
(1.45257 1.13949e-10 0)
(1.45257 2.35057e-10 0)
(1.45257 2.943e-10 0)
(1.45257 2.23918e-10 0)
(1.45257 1.14897e-11 0)
(1.45257 -1.65608e-10 0)
(1.45257 -7.61229e-11 0)
(1.45257 1.82517e-10 0)
(1.45257 2.74691e-10 0)
(1.45257 -1.47791e-11 0)
(1.45257 -4.20759e-10 0)
(1.45257 -5.76235e-10 0)
(1.45257 -3.25798e-10 0)
(1.45257 2.63805e-10 0)
(1.45257 4.8102e-10 0)
(1.45257 5.41949e-11 0)
(1.45257 -4.46031e-10 0)
(1.45257 -5.41181e-10 0)
(1.45257 -7.51008e-11 0)
(1.45257 4.42619e-10 0)
(1.45257 4.58699e-10 0)
(1.45257 4.79765e-10 0)
(1.45257 3.16343e-10 0)
(1.45257 1.92993e-10 0)
(1.45257 7.83798e-10 0)
(1.45257 1.23588e-09 0)
(1.00056 0.0107264 0)
(1.01593 0.0280185 0)
(1.04218 0.0380259 0)
(1.07349 0.0421349 0)
(1.10484 0.0430351 0)
(1.13403 0.0421632 0)
(1.16045 0.0400181 0)
(1.18392 0.0369852 0)
(1.20434 0.0335461 0)
(1.22177 0.0301142 0)
(1.2365 0.0269357 0)
(1.24891 0.0241105 0)
(1.25943 0.0216535 0)
(1.26843 0.0195424 0)
(1.2762 0.0177348 0)
(1.28297 0.0161835 0)
(1.28892 0.0148436 0)
(1.29418 0.0136748 0)
(1.29888 0.0126435 0)
(1.3031 0.0117233 0)
(1.3069 0.0108937 0)
(1.31035 0.0101396 0)
(1.31348 0.00944941 0)
(1.31634 0.00881442 0)
(1.31895 0.00822792 0)
(1.32134 0.00768462 0)
(1.32354 0.00718029 0)
(1.32556 0.00671139 0)
(1.32741 0.0062749 0)
(1.32913 0.00586811 0)
(1.33071 0.00548857 0)
(1.33217 0.00513398 0)
(1.33353 0.00480218 0)
(1.33478 0.0044911 0)
(1.33594 0.00419874 0)
(1.33702 0.00392312 0)
(1.33801 0.00366227 0)
(1.33893 0.00341421 0)
(1.33978 0.00317698 0)
(1.34057 0.00294872 0)
(1.34128 0.00272771 0)
(1.34194 0.00251251 0)
(1.34253 0.00230203 0)
(1.34306 0.00209561 0)
(1.34353 0.00189307 0)
(1.34394 0.00169475 0)
(1.3443 0.00150148 0)
(1.3446 0.00131453 0)
(1.34485 0.00113553 0)
(1.34505 0.000966324 0)
(1.34522 0.000808831 0)
(1.34534 0.000664825 0)
(1.34544 0.000535768 0)
(1.3455 0.000422636 0)
(1.34555 0.000325813 0)
(1.34558 0.000245049 0)
(1.3456 0.000179494 0)
(1.34561 0.000127793 0)
(1.34562 8.82387e-05 0)
(1.34562 5.89293e-05 0)
(1.34562 3.79349e-05 0)
(1.34562 2.34311e-05 0)
(1.34562 1.37963e-05 0)
(1.34562 7.66694e-06 0)
(1.34562 3.95479e-06 0)
(1.34562 1.83376e-06 0)
(1.34562 7.08645e-07 0)
(1.34562 1.74445e-07 0)
(1.34562 -3.65754e-08 0)
(1.34562 -9.16732e-08 0)
(1.34562 -8.19206e-08 0)
(1.34562 -5.32933e-08 0)
(1.34562 -2.61199e-08 0)
(1.34562 -6.88751e-09 0)
(1.34562 3.90812e-09 0)
(1.34562 8.22863e-09 0)
(1.34562 8.67795e-09 0)
(1.34562 7.48006e-09 0)
(1.34562 5.77325e-09 0)
(1.34562 3.95188e-09 0)
(1.34562 2.41008e-09 0)
(1.34562 1.40484e-09 0)
(1.34562 8.1353e-10 0)
(1.34562 4.69829e-10 0)
(1.34562 3.15198e-10 0)
(1.34562 2.76301e-10 0)
(1.34562 2.57208e-10 0)
(1.34562 2.05e-10 0)
(1.34562 1.297e-10 0)
(1.34562 1.13452e-11 0)
(1.34562 -1.64311e-10 0)
(1.34562 -2.91021e-10 0)
(1.34562 -2.68006e-10 0)
(1.34562 -1.88136e-10 0)
(1.34562 -1.68744e-10 0)
(1.34562 -1.62672e-10 0)
(1.34562 -7.95955e-11 0)
(1.34562 5.33475e-11 0)
(1.34562 1.28215e-10 0)
(1.34562 1.36696e-10 0)
(1.34562 1.22866e-10 0)
(1.34562 9.04233e-11 0)
(1.34562 4.89701e-11 0)
(1.34562 4.26479e-11 0)
(1.34562 9.93912e-11 0)
(1.34562 1.79344e-10 0)
(1.34562 2.04005e-10 0)
(1.34562 1.32896e-10 0)
(1.34562 3.25365e-11 0)
(1.34562 2.39012e-11 0)
(1.34562 1.4457e-10 0)
(1.34562 2.97603e-10 0)
(1.34562 3.63763e-10 0)
(1.34562 3.33731e-10 0)
(1.34562 2.66961e-10 0)
(1.34562 1.67685e-10 0)
(1.34562 -1.26554e-11 0)
(1.34562 -2.55269e-10 0)
(1.34562 -4.59907e-10 0)
(1.34562 -5.27875e-10 0)
(1.34562 -4.45863e-10 0)
(1.34562 -2.48104e-10 0)
(1.34562 -6.51785e-13 0)
(1.34562 2.35367e-10 0)
(1.34562 4.10456e-10 0)
(1.34562 4.45517e-10 0)
(1.34562 2.54639e-10 0)
(1.34562 -1.02303e-10 0)
(1.34562 -3.22393e-10 0)
(1.34562 -2.07002e-10 0)
(1.34562 1.10519e-10 0)
(1.34562 2.34819e-10 0)
(1.34562 1.28241e-11 0)
(1.34562 -3.61608e-10 0)
(1.34562 -5.0431e-10 0)
(1.34562 -1.51666e-10 0)
(1.34562 4.91096e-10 0)
(1.34562 6.94745e-10 0)
(1.34562 2.72018e-11 0)
(1.34562 -8.24602e-10 0)
(1.34562 -9.04839e-10 0)
(1.34562 -1.0235e-10 0)
(1.34562 7.16356e-10 0)
(1.34562 7.16115e-10 0)
(1.34562 4.26329e-10 0)
(1.34562 7.47154e-10 0)
(1.34562 2.21784e-10 0)
(1.34562 3.33213e-10 0)
(1.34562 5.1644e-10 0)
(1.34562 3.94292e-10 0)
(1.00109 0.0224478 0)
(1.02553 0.0539474 0)
(1.05878 0.0683459 0)
(1.09057 0.0726597 0)
(1.11664 0.0722635 0)
(1.13706 0.0688935 0)
(1.1527 0.0633367 0)
(1.16412 0.0565643 0)
(1.1718 0.0495611 0)
(1.17636 0.0430024 0)
(1.1785 0.0372 0)
(1.17887 0.0322232 0)
(1.17803 0.0280274 0)
(1.17639 0.0245229 0)
(1.17426 0.0216117 0)
(1.17184 0.0191938 0)
(1.16927 0.0171737 0)
(1.16665 0.0154689 0)
(1.16404 0.0140126 0)
(1.16148 0.0127537 0)
(1.15901 0.0116535 0)
(1.15664 0.0106829 0)
(1.15437 0.00981962 0)
(1.15221 0.0090467 0)
(1.15016 0.00835077 0)
(1.14822 0.00772125 0)
(1.14638 0.0071496 0)
(1.14465 0.00662879 0)
(1.14302 0.00615289 0)
(1.14148 0.00571679 0)
(1.14003 0.00531606 0)
(1.13866 0.00494676 0)
(1.13738 0.00460537 0)
(1.13618 0.00428869 0)
(1.13505 0.00399373 0)
(1.13399 0.00371769 0)
(1.133 0.00345786 0)
(1.13207 0.00321164 0)
(1.1312 0.00297658 0)
(1.13039 0.0027504 0)
(1.12964 0.00253114 0)
(1.12894 0.00231726 0)
(1.12829 0.00210774 0)
(1.12769 0.00190216 0)
(1.12713 0.00170073 0)
(1.12663 0.0015043 0)
(1.12618 0.00131427 0)
(1.12577 0.00113244 0)
(1.12541 0.000960824 0)
(1.1251 0.000801469 0)
(1.12483 0.000656219 0)
(1.1246 0.000526556 0)
(1.12441 0.000413419 0)
(1.12426 0.000317097 0)
(1.12414 0.000237205 0)
(1.12405 0.000172744 0)
(1.12398 0.000122223 0)
(1.12392 8.38199e-05 0)
(1.12389 5.55537e-05 0)
(1.12386 3.54489e-05 0)
(1.12385 2.16648e-05 0)
(1.12384 1.25851e-05 0)
(1.12383 6.86598e-06 0)
(1.12383 3.44509e-06 0)
(1.12382 1.5231e-06 0)
(1.12382 5.28545e-07 0)
(1.12382 7.16225e-08 0)
(1.12382 -1.00341e-07 0)
(1.12382 -1.30574e-07 0)
(1.12382 -1.05675e-07 0)
(1.12382 -6.72326e-08 0)
(1.12382 -3.40464e-08 0)
(1.12382 -1.1478e-08 0)
(1.12382 1.30689e-09 0)
(1.12382 6.90984e-09 0)
(1.12382 8.11949e-09 0)
(1.12382 7.09655e-09 0)
(1.12382 5.3658e-09 0)
(1.12382 3.7361e-09 0)
(1.12382 2.42687e-09 0)
(1.12382 1.41247e-09 0)
(1.12382 7.21061e-10 0)
(1.12382 3.93081e-10 0)
(1.12382 2.9222e-10 0)
(1.12382 2.5092e-10 0)
(1.12382 2.43401e-10 0)
(1.12382 2.3994e-10 0)
(1.12382 1.74962e-10 0)
(1.12382 6.10125e-11 0)
(1.12382 -6.5722e-11 0)
(1.12382 -1.86678e-10 0)
(1.12382 -2.59826e-10 0)
(1.12382 -2.45875e-10 0)
(1.12382 -1.69853e-10 0)
(1.12382 -1.02451e-10 0)
(1.12382 -6.31969e-11 0)
(1.12382 4.14513e-12 0)
(1.12382 1.05256e-10 0)
(1.12382 1.60312e-10 0)
(1.12382 1.0242e-10 0)
(1.12382 1.65698e-11 0)
(1.12382 -1.73373e-12 0)
(1.12382 2.25974e-11 0)
(1.12382 3.19452e-11 0)
(1.12382 3.71339e-11 0)
(1.12382 5.52827e-11 0)
(1.12382 5.43423e-11 0)
(1.12382 1.72786e-11 0)
(1.12382 -9.18548e-12 0)
(1.12382 3.63295e-11 0)
(1.12382 1.42482e-10 0)
(1.12382 2.29466e-10 0)
(1.12382 2.47019e-10 0)
(1.12382 2.11328e-10 0)
(1.12382 1.53128e-10 0)
(1.12382 6.47177e-11 0)
(1.12382 -7.14137e-11 0)
(1.12382 -2.31343e-10 0)
(1.12382 -3.55786e-10 0)
(1.12382 -3.87591e-10 0)
(1.12382 -3.00848e-10 0)
(1.12382 -1.47986e-10 0)
(1.12382 2.04531e-11 0)
(1.12382 1.97923e-10 0)
(1.12382 3.26137e-10 0)
(1.12382 2.85543e-10 0)
(1.12382 6.52764e-11 0)
(1.12382 -1.65749e-10 0)
(1.12382 -2.0097e-10 0)
(1.12382 -8.80471e-12 0)
(1.12382 1.61667e-10 0)
(1.12382 6.7369e-11 0)
(1.12382 -1.73224e-10 0)
(1.12382 -3.09056e-10 0)
(1.12382 -1.22808e-10 0)
(1.12382 3.01768e-10 0)
(1.12382 5.10873e-10 0)
(1.12382 1.56341e-10 0)
(1.12382 -4.46191e-10 0)
(1.12382 -6.32967e-10 0)
(1.12382 -5.83379e-11 0)
(1.12382 5.68643e-10 0)
(1.12382 3.40523e-10 0)
(1.12382 -9.95228e-11 0)
(1.12382 8.81017e-11 0)
(1.12382 7.15596e-10 0)
(1.12382 5.56763e-10 0)
(1.12382 3.23744e-10 0)
(1.12382 -9.70042e-10 0)
(1.12382 7.27249e-11 0)
(1.00086 0.053703 0)
(1.0315 0.0984002 0)
(1.05406 0.106345 0)
(1.05901 0.102383 0)
(1.05111 0.0943727 0)
(1.03725 0.0837419 0)
(1.02055 0.0714304 0)
(1.00228 0.0589075 0)
(0.983386 0.047422 0)