/*--------------------------------*- C++ -*----------------------------------*\
  =========                 |
  \\      /  F ield         | OpenFOAM: The Open Source CFD Toolbox
   \\    /   O peration     | Website:  https://openfoam.org
    \\  /    A nd           | Version:  7
     \\/     M anipulation  |
\*---------------------------------------------------------------------------*/
FoamFile
{
    version     2.0;
    format      ascii;
    class       volScalarField;
    location    "6";
    object      p;
}
// * * * * * * * * * * * * * * * * * * * * * * * * * * * * * * * * * * * * * //

dimensions      [0 2 -2 0 0 0 0];

internalField   nonuniform List<scalar> 
48000
(
1.90385
1.90388
1.90386
1.90377
1.90362
1.90341
1.90314
1.90281
1.90242
1.90198
1.90147
1.9009
1.90027
1.89958
1.89883
1.89802
1.89715
1.89623
1.89524
1.89419
1.89309
1.89194
1.89072
1.88945
1.88813
1.88676
1.88533
1.88385
1.88232
1.88075
1.87912
1.87745
1.87574
1.87398
1.87218
1.87033
1.86845
1.86653
1.86458
1.86258
1.86056
1.8585
1.85641
1.85429
1.85214
1.84996
1.84776
1.84553
1.84328
1.84101
1.83872
1.8364
1.83407
1.83172
1.82936
1.82698
1.82458
1.82218
1.81976
1.81733
1.81489
1.81244
1.80999
1.80753
1.80506
1.80258
1.8001
1.79762
1.79513
1.79264
1.79015
1.78766
1.78517
1.78268
1.78018
1.77769
1.7752
1.77271
1.77023
1.76774
1.76526
1.76278
1.76031
1.75784
1.75538
1.75292
1.75046
1.74801
1.74556
1.74312
1.74069
1.73826
1.73584
1.73342
1.73101
1.72861
1.72621
1.72382
1.72143
1.71905
1.71668
1.71432
1.71196
1.7096
1.70726
1.70492
1.70259
1.70026
1.69794
1.69563
1.69332
1.69102
1.68872
1.68643
1.68415
1.68187
1.6796
1.67734
1.67508
1.67282
1.67057
1.66833
1.66609
1.66386
1.66163
1.65941
1.65719
1.65497
1.65276
1.65056
1.64836
1.64616
1.64397
1.64178
1.6396
1.63741
1.63524
1.63306
1.63089
1.62873
1.62656
1.6244
1.62224
1.62009
1.61793
1.61578
1.61363
1.61149
1.60934
1.6072
1.60506
1.60292
1.60079
1.59865
1.59652
1.59439
1.59226
1.59013
1.588
1.58588
1.58375
1.58163
1.5795
1.57738
1.57526
1.57313
1.57101
1.56889
1.56677
1.56465
1.56253
1.56041
1.55829
1.55616
1.55404
1.55192
1.5498
1.54768
1.54556
1.54343
1.54131
1.53919
1.53706
1.53493
1.53281
1.53068
1.52855
1.52642
1.52429
1.52216
1.52003
1.51789
1.51576
1.51362
1.51148
1.50934
1.5072
1.50506
1.50292
1.50077
1.49862
1.49647
1.49432
1.49217
1.49001
1.48786
1.4857
1.48354
1.48138
1.47921
1.47705
1.47488
1.47271
1.47053
1.46836
1.46618
1.464
1.46182
1.45963
1.45745
1.45526
1.45306
1.45087
1.44867
1.44647
1.44427
1.44206
1.43985
1.43764
1.43543
1.43321
1.43099
1.42877
1.42654
1.42431
1.42208
1.41985
1.41761
1.41537
1.41312
1.41088
1.40862
1.40637
1.40411
1.40185
1.39959
1.39732
1.39505
1.39277
1.3905
1.38821
1.38593
1.38364
1.38135
1.37905
1.37675
1.37445
1.37214
1.36983
1.36751
1.36519
1.36287
1.36054
1.35821
1.35587
1.35353
1.35119
1.34884
1.34649
1.34413
1.34177
1.3394
1.33703
1.33466
1.33228
1.32989
1.32751
1.32511
1.32272
1.32032
1.31791
1.3155
1.31308
1.31066
1.30823
1.3058
1.30337
1.30093
1.29848
1.29603
1.29357
1.29111
1.28865
1.28618
1.2837
1.28122
1.27873
1.27624
1.27374
1.27123
1.26873
1.26621
1.26369
1.26116
1.25863
1.25609
1.25355
1.251
1.24844
1.24588
1.24332
1.24074
1.23816
1.23558
1.23299
1.23039
1.22778
1.22517
1.22256
1.21993
1.2173
1.21467
1.21202
1.20937
1.20672
1.20406
1.20139
1.19871
1.19603
1.19334
1.19064
1.18794
1.18522
1.18251
1.17978
1.17705
1.17431
1.17156
1.16881
1.16604
1.16327
1.1605
1.15771
1.15492
1.15212
1.14931
1.1465
1.14368
1.14084
1.13801
1.13516
1.1323
1.12944
1.12657
1.12369
1.1208
1.11791
1.115
1.11209
1.10917
1.10624
1.1033
1.10036
1.0974
1.09444
1.09147
1.08849
1.0855
1.0825
1.07949
1.07647
1.07345
1.07041
1.06737
1.06432
1.06126
1.05818
1.0551
1.05201
1.04891
1.04581
1.04269
1.03956
1.03642
1.03328
1.03012
1.02695
1.02378
1.02059
1.0174
1.01419
1.01097
1.00775
1.00451
1.00127
0.998009
0.994743
0.991465
0.988178
0.984879
0.981571
0.978251
0.974921
0.97158
0.968228
0.964865
0.961491
0.958105
0.954709
0.951301
0.947882
0.944451
0.941008
0.937554
0.934088
0.93061
0.92712
0.923618
0.920104
0.916578
0.913039
0.909488
0.905924
0.902347
0.898757
0.895155
0.89154
0.887911
0.884269
0.880614
0.876946
0.873264
0.869568
0.865859
0.862136
0.858399
0.854648
0.850883
0.847103
0.84331
0.839502
0.83568
0.831843
0.827991
0.824125
0.820245
0.816349
0.812438
0.808513
0.804572
0.800617
0.796646
0.79266
0.788658
0.784641
0.780609
0.776561
0.772498
0.768419
0.764324
0.760214
0.756087
0.751945
0.747787
0.743613
0.739423
0.735216
0.730994
0.726755
0.722499
0.718228
0.71394
0.709635
0.705314
0.700976
0.696622
0.692251
0.687863
0.683458
0.679036
0.674597
0.670141
0.665667
0.661177
0.656669
0.652144
0.647601
0.643041
0.638464
0.633869
0.629256
0.624625
0.619976
0.61531
0.610625
0.605923
0.601202
0.596464
0.591707
0.586931
0.582138
0.577325
0.572495
0.567645
0.562777
0.557891
0.552985
0.548061
0.543117
0.538155
0.533173
0.528172
0.523152
0.518113
0.513054
0.507976
0.502878
0.497761
0.492624
0.487467
0.48229
0.477093
0.471877
0.46664
0.461383
0.456105
0.450808
0.44549
0.440151
0.434792
0.429413
0.424012
0.418591
0.413149
0.407686
0.402202
0.396697
0.39117
0.385623
0.380054
0.374463
0.368851
0.363218
0.357562
0.351885
0.346186
0.340465
0.334722
0.328957
0.32317
0.31736
0.311528
0.305674
0.299797
0.293897
0.287975
0.28203
0.276062
0.270071
0.264057
0.25802
0.251959
0.245875
0.239768
0.233637
0.227483
0.221305
0.215103
0.208877
0.202627
0.196354
0.190056
0.183733
0.177387
0.171016
0.16462
0.1582
0.151755
0.145285
0.13879
0.132271
0.125726
0.119156
0.112561
0.10594
0.0992937
0.0926219
0.0859244
0.0792011
0.0724519
0.0656767
0.0588754
0.0520479
0.0451942
0.038314
0.0314073
0.024474
0.0175141
0.0105273
0.0035136
1.9047
1.90473
1.9047
1.90461
1.90446
1.90424
1.90397
1.90364
1.90324
1.90278
1.90226
1.90168
1.90104
1.90034
1.89957
1.89875
1.89786
1.89691
1.89591
1.89485
1.89372
1.89255
1.89131
1.89002
1.88868
1.88728
1.88583
1.88433
1.88277
1.88117
1.87953
1.87783
1.87609
1.87431
1.87249
1.87062
1.86872
1.86678
1.8648
1.86279
1.86074
1.85866
1.85655
1.85441
1.85224
1.85005
1.84783
1.84558
1.84332
1.84103
1.83872
1.83639
1.83405
1.83169
1.82931
1.82692
1.82451
1.8221
1.81967
1.81723
1.81478
1.81233
1.80986
1.80739
1.80492
1.80244
1.79995
1.79746
1.79497
1.79248
1.78998
1.78749
1.78499
1.7825
1.78
1.77751
1.77501
1.77252
1.77004
1.76755
1.76507
1.76259
1.76012
1.75765
1.75518
1.75272
1.75027
1.74782
1.74537
1.74293
1.7405
1.73807
1.73565
1.73324
1.73083
1.72842
1.72603
1.72364
1.72125
1.71888
1.71651
1.71414
1.71179
1.70944
1.70709
1.70476
1.70242
1.7001
1.69778
1.69547
1.69317
1.69087
1.68857
1.68629
1.68401
1.68173
1.67946
1.6772
1.67494
1.67269
1.67044
1.6682
1.66596
1.66373
1.66151
1.65929
1.65707
1.65486
1.65265
1.65045
1.64825
1.64605
1.64386
1.64168
1.63949
1.63731
1.63514
1.63297
1.6308
1.62863
1.62647
1.62431
1.62215
1.62
1.61785
1.6157
1.61355
1.61141
1.60926
1.60712
1.60499
1.60285
1.60071
1.59858
1.59645
1.59432
1.59219
1.59006
1.58794
1.58581
1.58369
1.58156
1.57944
1.57732
1.5752
1.57308
1.57095
1.56883
1.56671
1.56459
1.56247
1.56035
1.55823
1.55611
1.55399
1.55187
1.54975
1.54763
1.54551
1.54339
1.54126
1.53914
1.53702
1.53489
1.53277
1.53064
1.52851
1.52638
1.52425
1.52212
1.51999
1.51786
1.51572
1.51358
1.51145
1.50931
1.50717
1.50503
1.50288
1.50074
1.49859
1.49644
1.49429
1.49214
1.48998
1.48783
1.48567
1.48351
1.48135
1.47918
1.47702
1.47485
1.47268
1.47051
1.46833
1.46615
1.46397
1.46179
1.45961
1.45742
1.45523
1.45304
1.45085
1.44865
1.44645
1.44425
1.44204
1.43983
1.43762
1.43541
1.43319
1.43097
1.42875
1.42652
1.42429
1.42206
1.41983
1.41759
1.41535
1.41311
1.41086
1.40861
1.40635
1.4041
1.40184
1.39957
1.3973
1.39503
1.39276
1.39048
1.3882
1.38591
1.38362
1.38133
1.37904
1.37674
1.37443
1.37212
1.36981
1.3675
1.36518
1.36285
1.36053
1.35819
1.35586
1.35352
1.35117
1.34883
1.34647
1.34412
1.34176
1.33939
1.33702
1.33465
1.33227
1.32988
1.3275
1.3251
1.32271
1.32031
1.3179
1.31549
1.31307
1.31065
1.30823
1.30579
1.30336
1.30092
1.29847
1.29602
1.29357
1.29111
1.28864
1.28617
1.28369
1.28121
1.27872
1.27623
1.27373
1.27123
1.26872
1.2662
1.26368
1.26116
1.25862
1.25609
1.25354
1.25099
1.24844
1.24588
1.24331
1.24074
1.23816
1.23557
1.23298
1.23038
1.22778
1.22517
1.22255
1.21993
1.2173
1.21466
1.21202
1.20937
1.20671
1.20405
1.20138
1.19871
1.19602
1.19333
1.19063
1.18793
1.18522
1.1825
1.17978
1.17704
1.1743
1.17156
1.1688
1.16604
1.16327
1.16049
1.15771
1.15492
1.15212
1.14931
1.1465
1.14367
1.14084
1.138
1.13516
1.1323
1.12944
1.12657
1.12369
1.1208
1.11791
1.115
1.11209
1.10917
1.10624
1.1033
1.10036
1.0974
1.09444
1.09146
1.08848
1.08549
1.0825
1.07949
1.07647
1.07345
1.07041
1.06737
1.06431
1.06125
1.05818
1.0551
1.05201
1.04891
1.0458
1.04269
1.03956
1.03642
1.03327
1.03012
1.02695
1.02378
1.02059
1.01739
1.01419
1.01097
1.00775
1.00451
1.00126
0.998008
0.994741
0.991464
0.988176
0.984878
0.981569
0.97825
0.974919
0.971578
0.968226
0.964863
0.961489
0.958104
0.954708
0.9513
0.94788
0.94445
0.941007
0.937553
0.934087
0.930609
0.92712
0.923618
0.920104
0.916577
0.913038
0.909487
0.905923
0.902346
0.898757
0.895155
0.891539
0.887911
0.884269
0.880614
0.876945
0.873264
0.869568
0.865859
0.862136
0.858399
0.854648
0.850882
0.847103
0.84331
0.839502
0.83568
0.831843
0.827991
0.824125
0.820245
0.816349
0.812438
0.808513
0.804572
0.800617
0.796646
0.79266
0.788658
0.784641
0.780609
0.776561
0.772498
0.768419
0.764324
0.760214
0.756087
0.751945
0.747787
0.743613
0.739423
0.735216
0.730994
0.726755
0.722499
0.718228
0.71394
0.709635
0.705314
0.700976
0.696622
0.692251
0.687863
0.683458
0.679036
0.674597
0.670141
0.665667
0.661177
0.656669
0.652144
0.647601
0.643041
0.638464
0.633869
0.629256
0.624625
0.619976
0.61531
0.610625
0.605923
0.601202
0.596464
0.591707
0.586931
0.582138
0.577325
0.572495
0.567645
0.562777
0.557891
0.552985
0.548061
0.543117
0.538155
0.533173
0.528172
0.523152
0.518113
0.513054
0.507976
0.502878
0.497761
0.492624
0.487467
0.48229
0.477093
0.471877
0.46664
0.461383
0.456105
0.450808
0.44549
0.440151
0.434792
0.429413
0.424012
0.418591
0.413149
0.407686
0.402202
0.396697
0.39117
0.385623
0.380054
0.374463
0.368851
0.363218
0.357562
0.351885
0.346186
0.340465
0.334722
0.328957
0.32317
0.31736
0.311528
0.305674
0.299797
0.293897
0.287975
0.28203
0.276062
0.270071
0.264057
0.25802
0.251959
0.245875
0.239768
0.233637
0.227483
0.221305
0.215103
0.208877
0.202627
0.196354
0.190056
0.183733
0.177387
0.171016
0.16462
0.1582
0.151755
0.145285
0.13879
0.132271
0.125726
0.119156
0.112561
0.10594
0.0992937
0.0926219
0.0859244
0.0792011
0.0724519
0.0656767
0.0588754
0.0520479
0.0451942
0.038314
0.0314073
0.024474
0.0175141
0.0105273
0.0035136
1.90631
1.90634
1.90631
1.90622
1.90606
1.90584
1.90555
1.9052
1.90479
1.90431
1.90377
1.90317
1.9025
1.90177
1.90098
1.90012
1.8992
1.89822
1.89718
1.89608
1.89492
1.8937
1.89242
1.89109
1.8897
1.88826
1.88677
1.88522
1.88362
1.88198
1.88029
1.87855
1.87677
1.87494
1.87307
1.87116
1.86922
1.86723
1.86521
1.86316
1.86108
1.85896
1.85681
1.85463
1.85243
1.8502
1.84795
1.84568
1.84338
1.84106
1.83872
1.83637
1.834
1.83161
1.82921
1.8268
1.82437
1.82194
1.81949
1.81704
1.81457
1.8121
1.80962
1.80714
1.80465
1.80216
1.79966
1.79716
1.79466
1.79216
1.78966
1.78716
1.78465
1.78215
1.77965
1.77715
1.77466
1.77217
1.76968
1.76719
1.76471
1.76223
1.75975
1.75728
1.75482
1.75236
1.7499
1.74745
1.74501
1.74257
1.74014
1.73772
1.7353
1.73288
1.73048
1.72808
1.72569
1.7233
1.72092
1.71855
1.71618
1.71382
1.71147
1.70912
1.70678
1.70445
1.70212
1.6998
1.69749
1.69518
1.69288
1.69058
1.68829
1.68601
1.68373
1.68146
1.6792
1.67694
1.67469
1.67244
1.67019
1.66796
1.66573
1.6635
1.66128
1.65906
1.65685
1.65464
1.65243
1.65024
1.64804
1.64585
1.64366
1.64148
1.6393
1.63712
1.63495
1.63278
1.63062
1.62846
1.6263
1.62414
1.62199
1.61983
1.61769
1.61554
1.6134
1.61125
1.60912
1.60698
1.60484
1.60271
1.60058
1.59845
1.59632
1.59419
1.59206
1.58994
1.58781
1.58569
1.58357
1.58145
1.57932
1.5772
1.57508
1.57297
1.57085
1.56873
1.56661
1.56449
1.56237
1.56026
1.55814
1.55602
1.5539
1.55178
1.54966
1.54754
1.54542
1.5433
1.54118
1.53906
1.53693
1.53481
1.53269
1.53056
1.52843
1.52631
1.52418
1.52205
1.51992
1.51779
1.51565
1.51352
1.51138
1.50924
1.5071
1.50496
1.50282
1.50068
1.49853
1.49638
1.49423
1.49208
1.48993
1.48777
1.48562
1.48346
1.4813
1.47913
1.47697
1.4748
1.47263
1.47046
1.46828
1.46611
1.46393
1.46175
1.45956
1.45738
1.45519
1.453
1.4508
1.44861
1.44641
1.4442
1.442
1.43979
1.43758
1.43537
1.43315
1.43093
1.42871
1.42649
1.42426
1.42203
1.41979
1.41756
1.41532
1.41307
1.41083
1.40858
1.40632
1.40407
1.40181
1.39954
1.39727
1.395
1.39273
1.39045
1.38817
1.38589
1.3836
1.38131
1.37901
1.37671
1.37441
1.3721
1.36979
1.36747
1.36515
1.36283
1.3605
1.35817
1.35584
1.3535
1.35115
1.34881
1.34645
1.3441
1.34174
1.33937
1.337
1.33463
1.33225
1.32987
1.32748
1.32509
1.32269
1.32029
1.31788
1.31547
1.31305
1.31063
1.30821
1.30578
1.30334
1.3009
1.29846
1.29601
1.29355
1.29109
1.28863
1.28615
1.28368
1.2812
1.27871
1.27622
1.27372
1.27121
1.26871
1.26619
1.26367
1.26114
1.25861
1.25608
1.25353
1.25098
1.24843
1.24587
1.2433
1.24073
1.23815
1.23556
1.23297
1.23037
1.22777
1.22516
1.22254
1.21992
1.21729
1.21465
1.21201
1.20936
1.20671
1.20404
1.20137
1.1987
1.19601
1.19332
1.19063
1.18792
1.18521
1.18249
1.17977
1.17704
1.1743
1.17155
1.1688
1.16603
1.16326
1.16049
1.1577
1.15491
1.15211
1.1493
1.14649
1.14367
1.14084
1.138
1.13515
1.1323
1.12943
1.12656
1.12368
1.1208
1.1179
1.115
1.11208
1.10916
1.10623
1.1033
1.10035
1.0974
1.09443
1.09146
1.08848
1.08549
1.08249
1.07948
1.07647
1.07344
1.07041
1.06736
1.06431
1.06125
1.05818
1.0551
1.05201
1.04891
1.0458
1.04268
1.03955
1.03642
1.03327
1.03011
1.02695
1.02377
1.02059
1.01739
1.01418
1.01097
1.00774
1.00451
1.00126
0.998005
0.994738
0.991461
0.988174
0.984875
0.981567
0.978247
0.974917
0.971576
0.968224
0.964861
0.961487
0.958102
0.954706
0.951298
0.947879
0.944448
0.941006
0.937551
0.934086
0.930608
0.927118
0.923616
0.920102
0.916576
0.913037
0.909486
0.905922
0.902345
0.898756
0.895154
0.891538
0.88791
0.884268
0.880613
0.876945
0.873263
0.869567
0.865858
0.862135
0.858398
0.854647
0.850882
0.847103
0.843309
0.839502
0.835679
0.831843
0.827991
0.824125
0.820244
0.816349
0.812438
0.808513
0.804572
0.800617
0.796646
0.79266
0.788658
0.784641
0.780609
0.776561
0.772498
0.768419
0.764324
0.760214
0.756087
0.751945
0.747787
0.743613
0.739423
0.735216
0.730994
0.726755
0.722499
0.718228
0.71394
0.709635
0.705314
0.700976
0.696622
0.692251
0.687863
0.683458
0.679036
0.674597
0.670141
0.665667
0.661177
0.656669
0.652144
0.647601
0.643041
0.638464
0.633869
0.629256
0.624625
0.619976
0.61531
0.610625
0.605923
0.601202
0.596464
0.591707
0.586931
0.582138
0.577325
0.572495
0.567645
0.562777
0.557891
0.552985
0.548061
0.543117
0.538155
0.533173
0.528172
0.523152
0.518113
0.513054
0.507976
0.502878
0.497761
0.492624
0.487467
0.48229
0.477093
0.471877
0.46664
0.461383
0.456105
0.450808
0.44549
0.440151
0.434792
0.429413
0.424012
0.418591
0.413149
0.407686
0.402202
0.396697
0.39117
0.385623
0.380054
0.374463
0.368851
0.363218
0.357562
0.351885
0.346186
0.340465
0.334722
0.328957
0.32317
0.31736
0.311528
0.305674
0.299797
0.293897
0.287975
0.28203
0.276062
0.270071
0.264057
0.25802
0.251959
0.245875
0.239768
0.233637
0.227483
0.221305
0.215103
0.208877
0.202627
0.196354
0.190056
0.183733
0.177387
0.171016
0.16462
0.1582
0.151755
0.145285
0.13879
0.132271
0.125726
0.119156
0.112561
0.10594
0.0992937
0.0926219
0.0859244
0.0792011
0.0724519
0.0656767
0.0588754
0.0520479
0.0451942
0.038314
0.0314073
0.024474
0.0175141
0.0105273
0.00351359
1.90862
1.90865
1.90862
1.90852
1.90835
1.90812
1.90782
1.90745
1.90701
1.90651
1.90594
1.9053
1.9046
1.90382
1.90299
1.90208
1.90112
1.90008
1.89899
1.89783
1.89662
1.89534
1.894
1.89261
1.89116
1.88965
1.88809
1.88648
1.88482
1.88311
1.88135
1.87955
1.8777
1.87581
1.87388
1.87191
1.86991
1.86786
1.86579
1.86367
1.86153
1.85936
1.85716
1.85493
1.85268
1.8504
1.84811
1.84579
1.84345
1.84109
1.83871
1.83632
1.83391
1.83149
1.82906
1.82662
1.82416
1.8217
1.81922
1.81674
1.81426
1.81176
1.80927
1.80676
1.80426
1.80175
1.79924
1.79673
1.79422
1.7917
1.78919
1.78668
1.78417
1.78166
1.77915
1.77665
1.77415
1.77165
1.76916
1.76667
1.76418
1.7617
1.75923
1.75676
1.7543
1.75184
1.74938
1.74694
1.7445
1.74206
1.73963
1.73721
1.73479
1.73239
1.72998
1.72759
1.7252
1.72282
1.72044
1.71808
1.71571
1.71336
1.71101
1.70867
1.70634
1.70401
1.70169
1.69937
1.69707
1.69476
1.69247
1.69018
1.6879
1.68562
1.68335
1.68109
1.67883
1.67657
1.67433
1.67208
1.66985
1.66762
1.66539
1.66317
1.66095
1.65874
1.65653
1.65433
1.65213
1.64994
1.64775
1.64556
1.64338
1.6412
1.63903
1.63686
1.63469
1.63253
1.63037
1.62821
1.62605
1.6239
1.62175
1.61961
1.61746
1.61532
1.61318
1.61104
1.60891
1.60677
1.60464
1.60251
1.60038
1.59826
1.59613
1.59401
1.59188
1.58976
1.58764
1.58552
1.5834
1.58128
1.57916
1.57705
1.57493
1.57281
1.5707
1.56858
1.56647
1.56435
1.56223
1.56012
1.558
1.55589
1.55377
1.55165
1.54954
1.54742
1.5453
1.54318
1.54106
1.53894
1.53682
1.5347
1.53258
1.53045
1.52833
1.5262
1.52408
1.52195
1.51982
1.51769
1.51556
1.51342
1.51129
1.50915
1.50701
1.50487
1.50273
1.50059
1.49845
1.4963
1.49415
1.492
1.48985
1.4877
1.48554
1.48338
1.48122
1.47906
1.4769
1.47473
1.47256
1.47039
1.46822
1.46604
1.46386
1.46168
1.4595
1.45732
1.45513
1.45294
1.45074
1.44855
1.44635
1.44415
1.44194
1.43974
1.43753
1.43532
1.4331
1.43088
1.42866
1.42644
1.42421
1.42198
1.41975
1.41751
1.41527
1.41303
1.41078
1.40853
1.40628
1.40402
1.40176
1.3995
1.39723
1.39496
1.39269
1.39041
1.38813
1.38585
1.38356
1.38127
1.37897
1.37667
1.37437
1.37206
1.36975
1.36744
1.36512
1.3628
1.36047
1.35814
1.35581
1.35347
1.35112
1.34878
1.34642
1.34407
1.34171
1.33934
1.33697
1.3346
1.33222
1.32984
1.32745
1.32506
1.32266
1.32026
1.31786
1.31545
1.31303
1.31061
1.30819
1.30576
1.30332
1.30088
1.29844
1.29599
1.29353
1.29107
1.28861
1.28613
1.28366
1.28118
1.27869
1.2762
1.2737
1.2712
1.26869
1.26617
1.26365
1.26113
1.2586
1.25606
1.25352
1.25097
1.24841
1.24585
1.24328
1.24071
1.23813
1.23555
1.23296
1.23036
1.22776
1.22515
1.22253
1.21991
1.21728
1.21464
1.212
1.20935
1.20669
1.20403
1.20136
1.19869
1.196
1.19331
1.19062
1.18791
1.1852
1.18248
1.17976
1.17703
1.17429
1.17154
1.16879
1.16602
1.16325
1.16048
1.15769
1.1549
1.1521
1.1493
1.14648
1.14366
1.14083
1.13799
1.13514
1.13229
1.12942
1.12655
1.12368
1.12079
1.11789
1.11499
1.11208
1.10916
1.10623
1.10329
1.10034
1.09739
1.09443
1.09145
1.08847
1.08548
1.08248
1.07948
1.07646
1.07344
1.0704
1.06736
1.06431
1.06124
1.05817
1.05509
1.052
1.0489
1.0458
1.04268
1.03955
1.03641
1.03327
1.03011
1.02694
1.02377
1.02058
1.01739
1.01418
1.01096
1.00774
1.0045
1.00126
0.998001
0.994734
0.991457
0.98817
0.984872
0.981563
0.978244
0.974914
0.971573
0.968221
0.964858
0.961484
0.958099
0.954703
0.951295
0.947876
0.944445
0.941003
0.937549
0.934083
0.930606
0.927116
0.923614
0.9201
0.916574
0.913036
0.909484
0.905921
0.902344
0.898755
0.895153
0.891537
0.887909
0.884267
0.880612
0.876944
0.873262
0.869567
0.865858
0.862135
0.858398
0.854647
0.850882
0.847103
0.843309
0.839501
0.835679
0.831842
0.827991
0.824125
0.820244
0.816349
0.812438
0.808513
0.804572
0.800616
0.796646
0.79266
0.788658
0.784641
0.780609
0.776561
0.772498
0.768419
0.764324
0.760214
0.756087
0.751945
0.747787
0.743613
0.739423
0.735216
0.730994
0.726755
0.722499
0.718228
0.71394
0.709635
0.705314
0.700976
0.696622
0.692251
0.687863
0.683458
0.679036
0.674597
0.670141
0.665667
0.661177
0.656669
0.652144
0.647601
0.643041
0.638464
0.633869
0.629256
0.624625
0.619976
0.61531
0.610625
0.605923
0.601202
0.596464
0.591707
0.586931
0.582138
0.577325
0.572495
0.567645
0.562777
0.557891
0.552985
0.548061
0.543117
0.538155
0.533173
0.528172
0.523152
0.518113
0.513054
0.507976
0.502878
0.497761
0.492624
0.487467
0.48229
0.477093
0.471877
0.46664
0.461383
0.456105
0.450808
0.44549
0.440151
0.434792
0.429413
0.424012
0.418591
0.413149
0.407686
0.402202
0.396697
0.39117
0.385623
0.380054
0.374463
0.368851
0.363218
0.357562
0.351885
0.346186
0.340465
0.334722
0.328957
0.32317
0.31736
0.311528
0.305674
0.299797
0.293897
0.287975
0.28203
0.276062
0.270071
0.264057
0.25802
0.251959
0.245875
0.239768
0.233637
0.227483
0.221305
0.215103
0.208877
0.202627
0.196354
0.190056
0.183733
0.177387
0.171016
0.16462
0.1582
0.151755
0.145285
0.13879
0.132271
0.125726
0.119156
0.112561
0.10594
0.0992937
0.0926219
0.0859244
0.0792011
0.0724519
0.0656767
0.0588754
0.0520479
0.0451942
0.038314
0.0314073
0.024474
0.0175141
0.0105273
0.00351359
1.91158
1.91161
1.91159
1.91148
1.9113
1.91104
1.91072
1.91033
1.90986
1.90932
1.90871
1.90802
1.90727
1.90644
1.90555
1.90458
1.90355
1.90245
1.90129
1.90006
1.89876
1.89741
1.89599
1.89452
1.89299
1.8914
1.88976
1.88806
1.88632
1.88452
1.88268
1.88079
1.87886
1.87689
1.87488
1.87283
1.87075
1.86863
1.86648
1.86429
1.86208
1.85984
1.85757
1.85528
1.85296
1.85063
1.84827
1.84589
1.8435
1.84109
1.83867
1.83623
1.83378
1.83131
1.82884
1.82636
1.82387
1.82137
1.81887
1.81636
1.81384
1.81132
1.8088
1.80627
1.80375
1.80122
1.79869
1.79616
1.79364
1.79111
1.78859
1.78606
1.78354
1.78103
1.77851
1.776
1.7735
1.771
1.7685
1.76601
1.76352
1.76104
1.75856
1.75609
1.75363
1.75117
1.74872
1.74628
1.74384
1.74141
1.73899
1.73657
1.73416
1.73175
1.72936
1.72697
1.72459
1.72221
1.71984
1.71748
1.71513
1.71278
1.71044
1.70811
1.70578
1.70346
1.70115
1.69884
1.69654
1.69425
1.69196
1.68968
1.6874
1.68513
1.68287
1.68061
1.67836
1.67612
1.67388
1.67164
1.66941
1.66719
1.66497
1.66276
1.66055
1.65834
1.65614
1.65395
1.65176
1.64957
1.64739
1.64521
1.64303
1.64086
1.63869
1.63653
1.63437
1.63221
1.63005
1.6279
1.62575
1.62361
1.62146
1.61932
1.61718
1.61505
1.61291
1.61078
1.60865
1.60652
1.60439
1.60227
1.60014
1.59802
1.5959
1.59378
1.59166
1.58954
1.58743
1.58531
1.58319
1.58108
1.57897
1.57685
1.57474
1.57263
1.57051
1.5684
1.56629
1.56418
1.56206
1.55995
1.55784
1.55572
1.55361
1.5515
1.54938
1.54727
1.54515
1.54304
1.54092
1.5388
1.53668
1.53456
1.53244
1.53032
1.5282
1.52608
1.52395
1.52183
1.5197
1.51757
1.51544
1.51331
1.51118
1.50904
1.50691
1.50477
1.50263
1.50049
1.49834
1.4962
1.49405
1.49191
1.48975
1.4876
1.48545
1.48329
1.48113
1.47897
1.47681
1.47465
1.47248
1.47031
1.46814
1.46596
1.46379
1.46161
1.45943
1.45724
1.45505
1.45287
1.45067
1.44848
1.44628
1.44408
1.44188
1.43967
1.43746
1.43525
1.43304
1.43082
1.4286
1.42638
1.42415
1.42192
1.41969
1.41745
1.41522
1.41297
1.41073
1.40848
1.40623
1.40397
1.40171
1.39945
1.39719
1.39492
1.39264
1.39037
1.38809
1.3858
1.38352
1.38123
1.37893
1.37663
1.37433
1.37202
1.36971
1.3674
1.36508
1.36276
1.36043
1.3581
1.35577
1.35343
1.35109
1.34874
1.34639
1.34403
1.34167
1.33931
1.33694
1.33457
1.33219
1.32981
1.32742
1.32503
1.32264
1.32023
1.31783
1.31542
1.313
1.31058
1.30816
1.30573
1.3033
1.30086
1.29841
1.29596
1.29351
1.29105
1.28858
1.28611
1.28364
1.28115
1.27867
1.27618
1.27368
1.27118
1.26867
1.26615
1.26363
1.26111
1.25858
1.25604
1.2535
1.25095
1.24839
1.24583
1.24327
1.24069
1.23812
1.23553
1.23294
1.23034
1.22774
1.22513
1.22251
1.21989
1.21726
1.21463
1.21198
1.20933
1.20668
1.20402
1.20135
1.19867
1.19599
1.1933
1.1906
1.1879
1.18519
1.18247
1.17975
1.17701
1.17427
1.17153
1.16877
1.16601
1.16324
1.16047
1.15768
1.15489
1.15209
1.14929
1.14647
1.14365
1.14082
1.13798
1.13513
1.13228
1.12942
1.12655
1.12367
1.12078
1.11788
1.11498
1.11207
1.10915
1.10622
1.10328
1.10034
1.09738
1.09442
1.09145
1.08847
1.08548
1.08248
1.07947
1.07645
1.07343
1.07039
1.06735
1.0643
1.06124
1.05817
1.05509
1.052
1.0489
1.04579
1.04267
1.03954
1.03641
1.03326
1.0301
1.02694
1.02376
1.02058
1.01738
1.01418
1.01096
1.00773
1.0045
1.00125
0.997996
0.99473
0.991453
0.988166
0.984868
0.981559
0.97824
0.97491
0.971569
0.968217
0.964855
0.961481
0.958096
0.9547
0.951292
0.947873
0.944443
0.941
0.937547
0.934081
0.930603
0.927114
0.923612
0.920098
0.916572
0.913034
0.909483
0.905919
0.902343
0.898753
0.895151
0.891536
0.887908
0.884266
0.880611
0.876943
0.873261
0.869566
0.865857
0.862134
0.858397
0.854646
0.850881
0.847102
0.843309
0.839501
0.835679
0.831842
0.827991
0.824125
0.820244
0.816349
0.812438
0.808513
0.804572
0.800616
0.796646
0.79266
0.788658
0.784641
0.780609
0.776561
0.772498
0.768419
0.764324
0.760214
0.756087
0.751945
0.747787
0.743613
0.739423
0.735216
0.730994
0.726755
0.722499
0.718228
0.71394
0.709635
0.705314
0.700976
0.696622
0.692251
0.687863
0.683458
0.679036
0.674597
0.670141
0.665667
0.661177
0.656669
0.652144
0.647601
0.643041
0.638464
0.633869
0.629256
0.624625
0.619976
0.61531
0.610625
0.605923
0.601202
0.596464
0.591707
0.586931
0.582138
0.577325
0.572495
0.567645
0.562777
0.557891
0.552985
0.548061
0.543117
0.538155
0.533173
0.528172
0.523152
0.518113
0.513054
0.507976
0.502878
0.497761
0.492624
0.487467
0.48229
0.477093
0.471877
0.46664
0.461383
0.456105
0.450808
0.44549
0.440151
0.434792
0.429413
0.424012
0.418591
0.413149
0.407686
0.402202
0.396697
0.39117
0.385623
0.380054
0.374463
0.368851
0.363218
0.357562
0.351885
0.346186
0.340465
0.334722
0.328957
0.32317
0.31736
0.311528
0.305674
0.299797
0.293897
0.287975
0.28203
0.276062
0.270071
0.264057
0.25802
0.251959
0.245875
0.239768
0.233637
0.227483
0.221305
0.215103
0.208877
0.202627
0.196354
0.190056
0.183733
0.177387
0.171016
0.16462
0.1582
0.151755
0.145285
0.13879
0.132271
0.125726
0.119156
0.112561
0.10594
0.0992937
0.0926219
0.0859244
0.0792011
0.0724519
0.0656767
0.0588754
0.0520479
0.0451942
0.038314
0.0314073
0.024474
0.0175141
0.0105273
0.00351359
1.91516
1.9152
1.91517
1.91505
1.91485
1.91458
1.91423
1.9138
1.91329
1.9127
1.91204
1.9113
1.91048
1.90959
1.90862
1.90758
1.90647
1.90528
1.90403
1.90271
1.90132
1.89987
1.89835
1.89678
1.89514
1.89345
1.89171
1.88991
1.88806
1.88616
1.88422
1.88223
1.8802
1.87813
1.87602
1.87388
1.8717
1.86949
1.86725
1.86498
1.86268
1.86035
1.85801
1.85564
1.85325
1.85084
1.84842
1.84598
1.84352
1.84105
1.83857
1.83607
1.83357
1.83106
1.82854
1.82601
1.82348
1.82095
1.81841
1.81586
1.81331
1.81077
1.80822
1.80567
1.80312
1.80057
1.79802
1.79547
1.79293
1.79039
1.78785
1.78532
1.78279
1.78026
1.77774
1.77522
1.77271
1.77021
1.76771
1.76521
1.76272
1.76024
1.75777
1.7553
1.75284
1.75038
1.74794
1.7455
1.74306
1.74064
1.73822
1.73581
1.7334
1.73101
1.72862
1.72623
1.72386
1.72149
1.71913
1.71678
1.71443
1.7121
1.70976
1.70744
1.70512
1.70281
1.70051
1.69821
1.69592
1.69364
1.69136
1.68909
1.68682
1.68456
1.68231
1.68006
1.67782
1.67558
1.67335
1.67113
1.66891
1.66669
1.66448
1.66228
1.66008
1.65788
1.65569
1.6535
1.65132
1.64914
1.64697
1.64479
1.64263
1.64046
1.6383
1.63615
1.63399
1.63184
1.62969
1.62755
1.62541
1.62327
1.62113
1.61899
1.61686
1.61473
1.6126
1.61048
1.60835
1.60623
1.60411
1.60199
1.59987
1.59775
1.59564
1.59352
1.59141
1.58929
1.58718
1.58507
1.58296
1.58085
1.57874
1.57663
1.57452
1.57241
1.5703
1.56819
1.56609
1.56398
1.56187
1.55976
1.55765
1.55554
1.55343
1.55132
1.54921
1.5471
1.54499
1.54287
1.54076
1.53864
1.53653
1.53441
1.53229
1.53017
1.52806
1.52593
1.52381
1.52169
1.51956
1.51744
1.51531
1.51318
1.51105
1.50892
1.50678
1.50465
1.50251
1.50037
1.49823
1.49609
1.49394
1.4918
1.48965
1.4875
1.48535
1.48319
1.48103
1.47888
1.47671
1.47455
1.47238
1.47022
1.46805
1.46587
1.4637
1.46152
1.45934
1.45716
1.45497
1.45278
1.45059
1.4484
1.4462
1.44401
1.4418
1.4396
1.43739
1.43518
1.43297
1.43075
1.42853
1.42631
1.42409
1.42186
1.41963
1.41739
1.41515
1.41291
1.41067
1.40842
1.40617
1.40392
1.40166
1.3994
1.39713
1.39486
1.39259
1.39032
1.38804
1.38575
1.38347
1.38118
1.37888
1.37659
1.37428
1.37198
1.36967
1.36736
1.36504
1.36272
1.36039
1.35806
1.35573
1.35339
1.35105
1.3487
1.34635
1.344
1.34164
1.33927
1.33691
1.33453
1.33216
1.32977
1.32739
1.325
1.3226
1.3202
1.3178
1.31539
1.31297
1.31055
1.30813
1.3057
1.30327
1.30083
1.29838
1.29593
1.29348
1.29102
1.28856
1.28609
1.28361
1.28113
1.27864
1.27615
1.27365
1.27115
1.26864
1.26613
1.26361
1.26109
1.25855
1.25602
1.25348
1.25093
1.24837
1.24581
1.24325
1.24067
1.2381
1.23551
1.23292
1.23032
1.22772
1.22511
1.2225
1.21987
1.21724
1.21461
1.21197
1.20932
1.20666
1.204
1.20133
1.19866
1.19597
1.19329
1.19059
1.18789
1.18518
1.18246
1.17973
1.177
1.17426
1.17152
1.16876
1.166
1.16323
1.16046
1.15767
1.15488
1.15208
1.14927
1.14646
1.14364
1.14081
1.13797
1.13512
1.13227
1.12941
1.12654
1.12366
1.12077
1.11787
1.11497
1.11206
1.10914
1.10621
1.10327
1.10033
1.09737
1.09441
1.09144
1.08846
1.08547
1.08247
1.07946
1.07645
1.07342
1.07039
1.06734
1.06429
1.06123
1.05816
1.05508
1.05199
1.04889
1.04578
1.04266
1.03954
1.0364
1.03325
1.0301
1.02693
1.02376
1.02057
1.01738
1.01417
1.01095
1.00773
1.00449
1.00125
0.997991
0.994725
0.991448
0.988161
0.984863
0.981555
0.978236
0.974906
0.971565
0.968213
0.964851
0.961477
0.958092
0.954696
0.951289
0.94787
0.944439
0.940997
0.937544
0.934078
0.930601
0.927111
0.92361
0.920096
0.91657
0.913032
0.909481
0.905917
0.902341
0.898752
0.89515
0.891535
0.887907
0.884265
0.88061
0.876942
0.873261
0.869565
0.865856
0.862133
0.858396
0.854646
0.850881
0.847102
0.843308
0.839501
0.835679
0.831842
0.827991
0.824125
0.820244
0.816348
0.812438
0.808512
0.804572
0.800616
0.796646
0.792659
0.788658
0.784641
0.780609
0.776561
0.772498
0.768419
0.764324
0.760214
0.756087
0.751945
0.747787
0.743613
0.739423
0.735216
0.730994
0.726755
0.722499
0.718228
0.71394
0.709635
0.705314
0.700976
0.696622
0.692251
0.687863
0.683458
0.679036
0.674597
0.670141
0.665667
0.661177
0.656669
0.652144
0.647601
0.643041
0.638464
0.633869
0.629256
0.624625
0.619976
0.61531
0.610625
0.605923
0.601202
0.596464
0.591707
0.586931
0.582138
0.577325
0.572495
0.567645
0.562777
0.557891
0.552985
0.548061
0.543117
0.538155
0.533173
0.528172
0.523152
0.518113
0.513054
0.507976
0.502878
0.497761
0.492624
0.487467
0.48229
0.477093
0.471877
0.46664
0.461383
0.456105
0.450808
0.44549
0.440151
0.434792
0.429413
0.424012
0.418591
0.413149
0.407686
0.402202
0.396697
0.39117
0.385623
0.380054
0.374463
0.368851
0.363218
0.357562
0.351885
0.346186
0.340465
0.334722
0.328957
0.32317
0.31736
0.311528
0.305674
0.299797
0.293897
0.287975