/*--------------------------------*- C++ -*----------------------------------*\
  =========                 |
  \\      /  F ield         | OpenFOAM: The Open Source CFD Toolbox
   \\    /   O peration     | Website:  https://openfoam.org
    \\  /    A nd           | Version:  7
     \\/     M anipulation  |
\*---------------------------------------------------------------------------*/
FoamFile
{
    version     2.0;
    format      ascii;
    class       surfaceScalarField;
    location    "6";
    object      phi;
}
// * * * * * * * * * * * * * * * * * * * * * * * * * * * * * * * * * * * * * //

dimensions      [0 3 -1 0 0 0 0];

internalField   nonuniform List<scalar> 
95320
(
0.00250152
-7.10054e-08
-3.42096e-13
0.00250174
-2.14567e-07
-7.85683e-13
0.0025021
-3.59899e-07
-7.24968e-13
0.0025026
-5.06712e-07
-5.01631e-13
0.00250326
-6.548e-07
-3.73988e-13
0.00250406
-8.03959e-07
-3.00453e-13
0.00250502
-9.53974e-07
-2.57875e-13
0.00250612
-1.10463e-06
-2.3069e-13
0.00250738
-1.2557e-06
-2.11331e-13
0.00250878
-1.40697e-06
-1.98114e-13
0.00251034
-1.55821e-06
-1.88221e-13
0.00251205
-1.70919e-06
-1.78517e-13
0.00251391
-1.85969e-06
-1.69188e-13
0.00251592
-2.00949e-06
-1.62965e-13
0.00251808
-2.15836e-06
-1.59594e-13
0.00252038
-2.30608e-06
-1.55935e-13
0.00252284
-2.45244e-06
-1.52331e-13
0.00252543
-2.59724e-06
-1.48799e-13
0.00252817
-2.74027e-06
-1.43681e-13
0.00253106
-2.88134e-06
-1.39585e-13
0.00253408
-3.02026e-06
-1.39588e-13
0.00253723
-3.15685e-06
-1.41812e-13
0.00254052
-3.29094e-06
-1.44081e-13
0.00254395
-3.42238e-06
-1.4774e-13
0.0025475
-3.55102e-06
-1.52625e-13
0.00255117
-3.67671e-06
-1.57468e-13
0.00255497
-3.79933e-06
-1.6424e-13
0.00255889
-3.91876e-06
-1.73531e-13
0.00256293
-4.0349e-06
-1.81685e-13
0.00256707
-4.14765e-06
-1.88294e-13
0.00257133
-4.25694e-06
-1.95601e-13
0.00257569
-4.36269e-06
-2.02328e-13
0.00258016
-4.46484e-06
-2.06445e-13
0.00258472
-4.56335e-06
-2.09281e-13
0.00258938
-4.65818e-06
-2.11658e-13
0.00259413
-4.7493e-06
-2.13304e-13
0.00259897
-4.83669e-06
-2.13202e-13
0.00260389
-4.92036e-06
-2.10238e-13
0.00260889
-5.0003e-06
-2.05814e-13
0.00261396
-5.07653e-06
-2.00252e-13
0.00261911
-5.14906e-06
-1.92704e-13
0.00262433
-5.21793e-06
-1.84378e-13
0.00262961
-5.28318e-06
-1.74553e-13
0.00263496
-5.34485e-06
-1.61623e-13
0.00264036
-5.40298e-06
-1.47558e-13
0.00264582
-5.45765e-06
-1.32985e-13
0.00265133
-5.5089e-06
-1.16774e-13
0.00265688
-5.55681e-06
-9.95213e-14
0.00266249
-5.60145e-06
-8.13638e-14
0.00266813
-5.64289e-06
-6.15287e-14
0.00267381
-5.68122e-06
-4.02713e-14
0.00267953
-5.71651e-06
-1.86064e-14
0.00268528
-5.74886e-06
3.22554e-15
0.00269105
-5.77834e-06
2.58518e-14
0.00269686
-5.80506e-06
4.99395e-14
0.00270269
-5.82909e-06
7.54746e-14
0.00270854
-5.85054e-06
1.0169e-13
0.00271441
-5.86949e-06
1.27863e-13
0.00272029
-5.88603e-06
1.54001e-13
0.00272619
-5.90026e-06
1.80451e-13
0.00273211
-5.91228e-06
2.07246e-13
0.00273803
-5.92216e-06
2.34366e-13
0.00274396
-5.93e-06
2.62162e-13
0.00274989
-5.9359e-06
2.90929e-13
0.00275583
-5.93993e-06
3.20484e-13
0.00276178
-5.94219e-06
3.50358e-13
0.00276772
-5.94277e-06
3.80185e-13
0.00277366
-5.94173e-06
4.10069e-13
0.0027796
-5.93918e-06
4.40485e-13
0.00278554
-5.93518e-06
4.71498e-13
0.00279147
-5.92982e-06
5.02407e-13
0.00279739
-5.92317e-06
5.32532e-13
0.0028033
-5.9153e-06
5.62055e-13
0.00280921
-5.90628e-06
5.91705e-13
0.00281511
-5.89619e-06
6.2181e-13
0.00282099
-5.88509e-06
6.52037e-13
0.00282686
-5.87304e-06
6.81813e-13
0.00283272
-5.8601e-06
7.10526e-13
0.00283857
-5.84635e-06
7.37676e-13
0.0028444
-5.83182e-06
7.63464e-13
0.00285022
-5.81658e-06
7.88923e-13
0.00285602
-5.80068e-06
8.14862e-13
0.0028618
-5.78416e-06
8.40808e-13
0.00286757
-5.76709e-06
8.65381e-13
0.00287332
-5.7495e-06
8.87645e-13
0.00287905
-5.73143e-06
9.07703e-13
0.00288477
-5.71293e-06
9.26077e-13
0.00289046
-5.69403e-06
9.43013e-13
0.00289613
-5.67478e-06
9.58526e-13
0.00290179
-5.6552e-06
9.72594e-13
0.00290742
-5.63534e-06
9.85105e-13
0.00291304
-5.61522e-06
9.95921e-13
0.00291863
-5.59486e-06
1.00476e-12
0.00292421
-5.57431e-06
1.01136e-12
0.00292976
-5.55359e-06
1.01523e-12
0.0029353
-5.53271e-06
1.01594e-12
0.00294081
-5.5117e-06
1.01367e-12
0.0029463
-5.49059e-06
1.009e-12
0.00295177
-5.46939e-06
1.0022e-12
0.00295721
-5.44812e-06
9.93249e-13
0.00296264
-5.4268e-06
9.82534e-13
0.00296805
-5.40544e-06
9.70796e-13
0.00297343
-5.38406e-06
9.58267e-13
0.00297879
-5.36267e-06
9.44458e-13
0.00298414
-5.34128e-06
9.2919e-13
0.00298946
-5.3199e-06
9.1315e-13
0.00299475
-5.29854e-06
8.97056e-13
0.00300003
-5.27722e-06
8.80823e-13
0.00300529
-5.25594e-06
8.63989e-13
0.00301052
-5.2347e-06
8.4655e-13
0.00301574
-5.21351e-06
8.28891e-13
0.00302093
-5.19238e-06
8.11184e-13
0.0030261
-5.17131e-06
7.93165e-13
0.00303125
-5.15031e-06
7.74378e-13
0.00303638
-5.12937e-06
7.54623e-13
0.00304149
-5.10851e-06
7.34236e-13
0.00304657
-5.08772e-06
7.13872e-13
0.00305164
-5.067e-06
6.93758e-13
0.00305669
-5.04636e-06
6.73328e-13
0.00306171
-5.0258e-06
6.51969e-13
0.00306672
-5.00531e-06
6.29902e-13
0.0030717
-4.98489e-06
6.08093e-13
0.00307667
-4.96455e-06
5.87418e-13
0.00308161
-4.94428e-06
5.6811e-13
0.00308654
-4.92409e-06
5.49826e-13
0.00309144
-4.90397e-06
5.32359e-13
0.00309632
-4.88391e-06
5.16163e-13
0.00310119
-4.86392e-06
5.02169e-13
0.00310603
-4.84399e-06
4.91149e-13
0.00311086
-4.82413e-06
4.83398e-13
0.00311566
-4.80432e-06
4.79022e-13
0.00312045
-4.78456e-06
4.77756e-13
0.00312521
-4.76486e-06
4.78882e-13
0.00312996
-4.74521e-06
4.81918e-13
0.00313468
-4.7256e-06
4.86985e-13
0.00313939
-4.70604e-06
4.94254e-13
0.00314407
-4.68652e-06
5.03056e-13
0.00314874
-4.66703e-06
5.12239e-13
0.00315339
-4.64757e-06
5.2131e-13
0.00315802
-4.62814e-06
5.30701e-13
0.00316263
-4.60874e-06
5.41346e-13
0.00316721
-4.58937e-06
5.53812e-13
0.00317178
-4.57001e-06
5.67893e-13
0.00317634
-4.55066e-06
5.82946e-13
0.00318087
-4.53133e-06
5.98638e-13
0.00318538
-4.51201e-06
6.15112e-13
0.00318987
-4.4927e-06
6.32842e-13
0.00319434
-4.47339e-06
6.52023e-13
0.0031988
-4.45408e-06
6.72422e-13
0.00320323
-4.43476e-06
6.9383e-13
0.00320765
-4.41545e-06
7.15974e-13
0.00321205
-4.39612e-06
7.38528e-13
0.00321642
-4.37679e-06
7.60841e-13
0.00322078
-4.35744e-06
7.82088e-13
0.00322512
-4.33807e-06
8.01779e-13
0.00322944
-4.31869e-06
8.20375e-13
0.00323374
-4.29929e-06
8.38425e-13
0.00323802
-4.27987e-06
8.56077e-13
0.00324228
-4.26043e-06
8.73448e-13
0.00324652
-4.24096e-06
8.90614e-13
0.00325074
-4.22146e-06
9.07712e-13
0.00325494
-4.20194e-06
9.24867e-13
0.00325912
-4.18238e-06
9.42064e-13
0.00326329
-4.1628e-06
9.59474e-13
0.00326743
-4.14318e-06
9.77278e-13
0.00327155
-4.12353e-06
9.95938e-13
0.00327566
-4.10384e-06
1.01615e-12
0.00327974
-4.08412e-06
1.03803e-12
0.0032838
-4.06437e-06
1.06151e-12
0.00328785
-4.04457e-06
1.08653e-12
0.00329187
-4.02474e-06
1.11319e-12
0.00329588
-4.00488e-06
1.14162e-12
0.00329986
-3.98497e-06
1.17146e-12
0.00330383
-3.96503e-06
1.2018e-12
0.00330777
-3.94505e-06
1.23208e-12
0.0033117
-3.92503e-06
1.26252e-12
0.0033156
-3.90498e-06
1.29303e-12
0.00331949
-3.88489e-06
1.32279e-12
0.00332335
-3.86475e-06
1.3512e-12
0.0033272
-3.84459e-06
1.37829e-12
0.00333102
-3.82438e-06
1.40394e-12
0.00333483
-3.80414e-06
1.42863e-12
0.00333861
-3.78387e-06
1.453e-12
0.00334237
-3.76356e-06
1.47716e-12
0.00334612
-3.74321e-06
1.50152e-12
0.00334984
-3.72283e-06
1.52516e-12
0.00335354
-3.70242e-06
1.54829e-12
0.00335722
-3.68198e-06
1.57113e-12
0.00336089
-3.66151e-06
1.59302e-12
0.00336453
-3.641e-06
1.61367e-12
0.00336815
-3.62047e-06
1.63249e-12
0.00337175
-3.59992e-06
1.64926e-12
0.00337533
-3.57933e-06
1.66327e-12
0.00337889
-3.55872e-06
1.67284e-12
0.00338242
-3.53809e-06
1.67622e-12
0.00338594
-3.51744e-06
1.67353e-12
0.00338944
-3.49676e-06
1.6646e-12
0.00339291
-3.47607e-06
1.65027e-12
0.00339637
-3.45535e-06
1.63301e-12
0.0033998
-3.43462e-06
1.61467e-12
0.00340322
-3.41388e-06
1.59557e-12
0.00340661
-3.39312e-06
1.57542e-12
0.00340998
-3.37235e-06
1.55531e-12
0.00341333
-3.35157e-06
1.53521e-12
0.00341667
-3.33078e-06
1.51634e-12
0.00341998
-3.30998e-06
1.49772e-12
0.00342326
-3.28918e-06
1.47828e-12
0.00342653
-3.26837e-06
1.45744e-12
0.00342978
-3.24756e-06
1.43471e-12
0.00343301
-3.22675e-06
1.41058e-12
0.00343621
-3.20594e-06
1.38441e-12
0.0034394
-3.18513e-06
1.35509e-12
0.00344256
-3.16432e-06
1.32068e-12
0.00344571
-3.14352e-06
1.28184e-12
0.00344883
-3.12273e-06
1.24065e-12
0.00345193
-3.10194e-06
1.19748e-12
0.00345501
-3.08117e-06
1.15408e-12
0.00345807
-3.0604e-06
1.11235e-12
0.00346111
-3.03965e-06
1.07427e-12
0.00346413
-3.01892e-06
1.03981e-12
0.00346713
-2.9982e-06
1.00811e-12
0.00347011
-2.9775e-06
9.77588e-13
0.00347306
-2.95682e-06
9.47809e-13
0.003476
-2.93616e-06
9.18457e-13
0.00347891
-2.91552e-06
8.86244e-13
0.00348181
-2.89491e-06
8.47419e-13
0.00348468
-2.87432e-06
8.0116e-13
0.00348754
-2.85376e-06
7.51136e-13
0.00349037
-2.83323e-06
7.02128e-13
0.00349318
-2.81273e-06
6.52741e-13
0.00349598
-2.79226e-06
5.9764e-13
0.00349875
-2.77182e-06
5.37176e-13
0.0035015
-2.75142e-06
4.8038e-13
0.00350423
-2.73106e-06
4.27328e-13
0.00350694
-2.71073e-06
3.77368e-13
0.00350963
-2.69044e-06
3.24411e-13
0.0035123
-2.67019e-06
2.75888e-13
0.00351495
-2.64998e-06
2.38543e-13
0.00351758
-2.62981e-06
2.10377e-13
0.00352019
-2.60969e-06
1.82103e-13
0.00352278
-2.58961e-06
1.48035e-13
0.00352535
-2.56958e-06
1.10238e-13
0.0035279
-2.54959e-06
7.56618e-14
0.00353043
-2.52966e-06
5.17605e-14
0.00353294
-2.50977e-06
3.29673e-14
0.00353543
-2.48994e-06
1.58145e-15
0.0035379
-2.47016e-06
-4.55217e-14
0.00354035
-2.45043e-06
-9.01625e-14
0.00354278
-2.43076e-06
-1.15159e-13
0.00354519
-2.41114e-06
-1.26372e-13
0.00354758
-2.39158e-06
-1.48054e-13
0.00354996
-2.37208e-06
-1.83859e-13
0.00355231
-2.35263e-06
-2.13118e-13
0.00355464
-2.33325e-06
-2.26428e-13
0.00355696
-2.31392e-06
-2.36428e-13
0.00355925
-2.29466e-06
-2.63614e-13
0.00356153
-2.27546e-06
-3.13539e-13
0.00356378
-2.25633e-06
-3.66838e-13
0.00356602
-2.23726e-06
-4.00167e-13
0.00356824
-2.21825e-06
-4.21662e-13
0.00357044
-2.19931e-06
-4.58968e-13
0.00357262
-2.18044e-06
-5.20631e-13
0.00357478
-2.16164e-06
-5.84718e-13
0.00357692
-2.1429e-06
-6.29722e-13
0.00357905
-2.12424e-06
-6.65036e-13
0.00358115
-2.10564e-06
-7.13597e-13
0.00358324
-2.08712e-06
-7.72755e-13
0.00358531
-2.06867e-06
-8.16207e-13
0.00358736
-2.05029e-06
-8.36524e-13
0.00358939
-2.03199e-06
-8.55688e-13
0.0035914
-2.01376e-06
-8.91732e-13
0.0035934
-1.99561e-06
-9.38412e-13
0.00359538
-1.97753e-06
-9.76213e-13
0.00359734
-1.95953e-06
-9.94675e-13
0.00359928
-1.9416e-06
-1.00711e-12
0.0036012
-1.92376e-06
-1.0247e-12
0.00360311
-1.90599e-06
-1.04644e-12
0.003605
-1.8883e-06
-1.06236e-12
0.00360687
-1.87069e-06
-1.05598e-12
0.00360872
-1.85316e-06
-1.0316e-12
0.00361056
-1.83571e-06
-1.00658e-12
0.00361237
-1.81834e-06
-9.84783e-13
0.00361417
-1.80105e-06
-9.63586e-13
0.00361596
-1.78385e-06
-9.45818e-13
0.00361773
-1.76673e-06
-9.23818e-13
0.00361947
-1.74969e-06
-8.9482e-13
0.00362121
-1.73274e-06
-8.69995e-13
0.00362292
-1.71587e-06
-8.58262e-13
0.00362462
-1.69908e-06
-8.54377e-13
0.0036263
-1.68238e-06
-8.38618e-13
0.00362797
-1.66577e-06
-8.03613e-13
0.00362962
-1.64924e-06
-7.6257e-13
0.00363125
-1.6328e-06
-7.10725e-13
0.00363287
-1.61644e-06
-6.49912e-13
0.00363447
-1.60017e-06
-5.9544e-13
0.00363605
-1.58399e-06
-5.52107e-13
0.00363762
-1.5679e-06
-4.90437e-13
0.00363917
-1.55189e-06
-4.16533e-13
0.00364071
-1.53598e-06
-3.52475e-13
0.00364223
-1.52015e-06
-3.24261e-13
0.00364373
-1.50441e-06
-3.18157e-13
0.00364522
-1.48876e-06
-3.06092e-13
0.0036467
-1.4732e-06
-2.70775e-13
0.00364815
-1.45773e-06
-2.48456e-13
0.0036496
-1.44235e-06
-2.23942e-13
0.00365102
-1.42706e-06
-1.91862e-13
0.00365243
-1.41186e-06
-1.41964e-13
0.00365383
-1.39675e-06
-7.95824e-14
0.00365521
-1.38174e-06
-1.10873e-14
0.00365658
-1.36681e-06
3.47395e-14
0.00365793
-1.35197e-06
5.98439e-14
0.00365927
-1.33723e-06
9.22645e-14
0.00366059
-1.32258e-06
1.30142e-13
0.0036619
-1.30802e-06
1.43306e-13
0.00366319
-1.29354e-06
1.00354e-13
0.00366447
-1.27917e-06
4.69866e-14
0.00366574
-1.26488e-06
2.90291e-14
0.00366699
-1.25068e-06
2.77745e-14
0.00366822
-1.23658e-06
1.93176e-14
0.00366945
-1.22256e-06
3.47546e-16
0.00367066
-1.20864e-06
-1.9958e-14
0.00367185
-1.19481e-06
-2.55236e-14
0.00367303
-1.18107e-06
-1.02708e-14
0.0036742
-1.16741e-06
-6.46331e-15
0.00367535
-1.15385e-06
-5.20602e-14
0.00367649
-1.14038e-06
-1.3377e-13
0.00367762
-1.127e-06
-2.04532e-13
0.00367873
-1.11371e-06
-2.29912e-13
0.00367983
-1.10051e-06
-2.75427e-13
0.00368092
-1.0874e-06
-3.65504e-13
0.003682
-1.07437e-06
-4.24973e-13
0.00368306
-1.06144e-06
-4.29319e-13
0.00368411
-1.04859e-06
-4.30631e-13
0.00368514
-1.03582e-06
-4.42066e-13
0.00368617
-1.02314e-06
-4.30056e-13
0.00368718
-1.01055e-06
-4.04078e-13
0.00368817
-9.98038e-07
-4.10389e-13
0.00368916
-9.85611e-07
-4.47461e-13
0.00369013
-9.73266e-07
-4.68953e-13
0.00369109
-9.61001e-07
-4.76145e-13
0.00369204
-9.48816e-07
-4.76451e-13
0.00369298
-9.36709e-07
-4.7974e-13
0.0036939
-9.24679e-07
-4.87611e-13
0.00369482
-9.12725e-07
-4.8272e-13
0.00369572
-9.00845e-07
-4.45726e-13
0.00369661
-8.89037e-07
-3.8243e-13
0.00369748
-8.77299e-07
-3.02073e-13
0.00369835
-8.6563e-07
-2.36137e-13
0.0036992
-8.54028e-07
-2.07235e-13
0.00370005
-8.42491e-07
-2.16935e-13
0.00370088
-8.31016e-07
-2.17242e-13
0.0037017
-8.19601e-07
-1.93833e-13
0.0037025
-8.08244e-07
-1.78796e-13
0.0037033
-7.96942e-07
-1.7934e-13
0.00370409
-7.85692e-07
-2.31873e-13
0.00370486
-7.74492e-07
-2.38609e-13
0.00370563
-7.63339e-07
-1.27875e-13
0.00370638
-7.5223e-07
2.82811e-15
0.00370712
-7.41161e-07
7.28279e-14
0.00370785
-7.30131e-07
9.46508e-14
0.00370857
-7.19136e-07
1.29928e-13
0.00370928
-7.08172e-07
1.75769e-13
0.00370997
-6.97236e-07
2.02939e-13
0.00371066
-6.86324e-07
2.01321e-13
0.00371134
-6.75434e-07
1.61359e-13
0.003712
-6.64561e-07
9.43041e-14
0.00371265
-6.53703e-07
3.83763e-14
0.0037133
-6.42855e-07
1.83118e-14
0.00371393
-6.32016e-07
6.2873e-14
0.00371455
-6.2118e-07
1.00502e-13
0.00371516
-6.10346e-07
1.46893e-13
0.00371576
-5.9951e-07
2.3593e-13
0.00371635
-5.88669e-07
2.91033e-13
0.00371693
-5.7782e-07
3.04656e-13
0.00371749
-5.66961e-07
3.33057e-13
0.00371805
-5.56089e-07
3.72521e-13
0.00371859
-5.45202e-07
3.54538e-13
0.00371913
-5.34299e-07
2.97559e-13
0.00371965
-5.23376e-07
2.95479e-13
0.00372016
-5.12435e-07
2.88097e-13
0.00372067
-5.01472e-07
2.37973e-13
0.00372116
-4.90488e-07
1.58423e-13
0.00372164
-4.79484e-07
1.38033e-13
0.0037221
-4.68458e-07
1.92039e-13
0.00372256
-4.57413e-07
2.07813e-13
0.00372301
-4.46349e-07
1.52485e-13
0.00372344
-4.35268e-07
9.69575e-14
0.00372387
-4.24174e-07
1.29644e-13
0.00372428
-4.13068e-07
1.46538e-13
0.00372468
-4.01954e-07
8.88161e-14
0.00372507
-3.90836e-07
4.27819e-14
0.00372545
-3.7972e-07
8.18847e-14
0.00372582
-3.6861e-07
9.14262e-14
0.00372618
-3.57512e-07
4.90949e-15
0.00372653
-3.46433e-07
-3.51988e-14
0.00372686
-3.3538e-07
5.42855e-14
0.00372719
-3.2436e-07
5.36847e-14
0.0037275
-3.13382e-07
1.65268e-14
0.0037278
-3.02454e-07
7.76402e-14
0.00372809
-2.91585e-07
6.25101e-14
0.00372837
-2.80786e-07
8.70977e-15
0.00372864
-2.70066e-07
-1.39926e-14
0.0037289
-2.59436e-07
-4.65317e-14
0.00372915
-2.48906e-07
-1.0079e-13
0.00372939
-2.38487e-07
-8.6457e-14
0.00372962
-2.28191e-07
-7.53466e-14
0.00372984
-2.18028e-07
-1.04452e-13
0.00373004
-2.08011e-07
-1.85113e-13
0.00373024
-1.98151e-07
-2.05792e-13
0.00373043
-1.88459e-07
-1.19501e-13
0.00373061
-1.78947e-07
-1.02603e-13
0.00373078
-1.69625e-07
-1.64559e-13
0.00373094
-1.60506e-07
-1.75078e-13
0.00373109
-1.51598e-07
-1.64502e-13
0.00373123
-1.42914e-07
-1.97028e-13
0.00373137
-1.34461e-07
-1.40105e-13
0.0037315
-1.2625e-07
-7.93521e-14
0.00373161
-1.18289e-07
-5.14944e-14
0.00373172
-1.10585e-07
-2.99086e-14
0.00373183
-1.03147e-07
-8.73238e-14
0.00373192
-9.59795e-08
-2.95211e-14
0.00373201
-8.90889e-08
2.40379e-14
0.00373209
-8.24797e-08
-4.08074e-14
0.00373217
-7.61555e-08
-1.87039e-14
0.00373224
-7.01192e-08
2.16518e-14
0.00373231
-6.43724e-08
-8.21368e-14
0.00373236
-5.8916e-08
-8.0611e-14
0.00373242
-5.37498e-08
6.73538e-14
0.00373247
-4.88725e-08
1.1844e-13
0.00373251
-4.42816e-08
2.13258e-14
0.00373255
-3.99744e-08
8.84509e-14
0.00373259
-3.59464e-08
1.27572e-13
0.00373262
-3.21921e-08
6.8013e-14
0.00373265
-2.8706e-08
1.30114e-13
0.00373267
-2.54808e-08
1.8678e-13
0.0037327
-2.25087e-08
9.33651e-14
0.00373272
-1.97814e-08
1.05297e-13
0.00373273
-1.72896e-08
1.48755e-13
0.00373275
-1.50233e-08
6.29594e-14
0.00373276
-1.29723e-08
5.09037e-14
0.00373277
-1.11255e-08
1.03788e-13
0.00373278
-9.47176e-09
7.69791e-14
0.00373279
-7.99962e-09
9.35911e-14
0.0037328
-6.69714e-09
1.23261e-14
0.0037328
-5.55242e-09
-7.11516e-14
0.00373281
-4.55383e-09
2.47809e-14
0.00373281
-3.68933e-09
-4.42985e-15
0.00373281
-2.94721e-09
-9.00494e-14
0.00373282
-2.31619e-09
-1.52264e-13
0.00373282
-1.78521e-09
-4.82192e-14
0.00373282
-1.3433e-09
-1.08909e-13
0.00373282
-9.80509e-10
-1.28883e-13
0.00373282
-6.87206e-10
-7.41988e-14
0.00373282
-4.54034e-10
-1.03444e-13
0.00373282
-2.72578e-10
-1.57745e-13
0.00373282
-1.35033e-10
-1.50785e-13
0.00373282
-3.44938e-11
-2.95148e-14
0.00373282
3.58499e-11
-5.55742e-14
0.00373282
8.16631e-11
-1.95058e-13
0.00373282
1.079e-10
-1.81455e-13
0.00373282
1.1907e-10
-1.91916e-13
0.00373282
1.19026e-10
-1.98774e-13
0.00373282
1.10927e-10
-2.31561e-13
0.00373282
9.74231e-11
-3.22298e-13
0.00373282
8.07033e-11
-2.84284e-13
0.00373282
6.23777e-11
-2.17271e-13
0.00373282
4.39712e-11
-3.78858e-13
0.00373282
2.62497e-11
-2.7208e-13
0.00373282
9.9171e-12
-2.47978e-13
0.00373282
-4.59217e-12
-3.65903e-13
0.00373282
-1.70791e-11
-2.89182e-13
0.00373282
-2.74698e-11
-1.52034e-13
0.00373282
-3.57784e-11
-2.18608e-13
0.00373282
-4.22032e-11
-2.48265e-13
0.00373282
-4.69898e-11
-1.90062e-13
0.00373282
-5.01427e-11
-1.55846e-13
0.00373282
-5.21306e-11
-2.5894e-14
0.00373282
-5.29958e-11
-1.34427e-13
0.00373282
-5.32314e-11
-7.84256e-14
0.00373282
-5.26751e-11
-1.32459e-13
0.00373282
-5.17104e-11
-1.79273e-13
0.00373282
-5.05322e-11
6.86038e-15
0.00373282
-4.91042e-11
-1.64587e-13
0.00373282
-4.76386e-11
-3.19117e-13
0.00373282
-4.61083e-11
-1.99022e-13
0.00373282
-4.47108e-11
-1.57042e-13
0.00373282
-4.34518e-11
-1.03073e-13
0.00373282
-4.1914e-11
-2.98209e-13
0.00373282
-4.07667e-11
-2.71847e-13
0.00373282
-3.98507e-11
-1.18173e-13
0.00373282
-3.87392e-11
-1.64227e-13
0.00373282
-3.78524e-11
-1.54903e-13
0.00373282
-3.70446e-11
-1.82664e-13
0.00373282
-3.62643e-11
-9.42992e-14
0.00373282
-3.54917e-11
-8.66803e-14
0.00373282
-3.48128e-11
-4.5223e-14
0.00373282
-3.41774e-11
-4.98652e-15
0.00373282
-3.3578e-11
-8.41151e-14
0.00373282
-3.30581e-11
9.23575e-14
0.00373282
-3.22902e-11
-2.43076e-14
0.00373282
-3.18071e-11
-6.72256e-14
0.00373282
-3.13415e-11
2.11745e-14
0.00373282
-3.06513e-11
-5.08281e-14
0.00373282
-3.00931e-11
-1.13629e-13
0.00373282
-2.98669e-11
7.34551e-14
0.00373282
-2.90174e-11
-1.98533e-13
0.00373282
-2.85652e-11
-4.44237e-14
0.00373282
-2.82242e-11
-2.87342e-14
0.00373282
-2.76271e-11
-1.6724e-13
0.00373282
-2.71591e-11
-8.74642e-14
0.00373282
-2.6781e-11
-7.46562e-14
0.00373282
-2.62445e-11
-1.14936e-13
0.00373282
-2.59393e-11
-7.94701e-14
0.00373282
-2.55801e-11
6.004e-14
0.00373282
-2.49127e-11
-1.43184e-13
0.00373282
-2.47033e-11
-1.58385e-14
0.00373282
-2.42415e-11
3.61924e-15
0.00373282
-2.37225e-11
-1.05216e-13
0.00373282
-2.35093e-11
-9.31718e-14
0.00373282
-2.314e-11
1.36762e-14
0.00373282
-2.26038e-11
-9.78947e-14
0.00373282
-2.25518e-11
-1.55099e-15
0.00373282
-2.20651e-11
-1.44544e-13
0.00373282
-2.16263e-11
-1.70238e-13
0.00373282
-2.15327e-11
3.02842e-14
0.00373282
-2.10602e-11
-3.00153e-14
0.00373282
-2.06557e-11
-1.79962e-13
0.00373282
-2.06706e-11
1.26825e-13
0.00373282
-2.01872e-11
8.75013e-15
0.00373282
-1.98965e-11
-6.92874e-15
0.00373282
-1.976e-11
1.41291e-13
0.00373282
-1.94294e-11
-5.03378e-15
0.00373282
-1.91468e-11
7.16096e-14
0.00373282
-1.88154e-11
8.28475e-14
0.00373282
-1.85653e-11
3.77404e-14
0.00373282
-1.8467e-11
1.10298e-13
0.00373282
-1.81418e-11
7.70965e-14
0.00373282
-1.78874e-11
1.65459e-14
0.00373282
-1.75827e-11
-3.7918e-14
0.00373282
-1.74139e-11
-3.07619e-14
0.00373282
-1.72396e-11
3.89886e-14
0.00373282
-1.6884e-11
-1.30709e-13
0.00373282
-1.66305e-11
-1.27352e-13
0.00373282
-1.65191e-11
-5.49771e-14
0.00373282
-1.62264e-11
-2.21455e-13
0.00373282
-1.59723e-11
-1.34396e-13
0.00373282
-1.5927e-11
-7.05186e-14
0.00373282
-1.56695e-11
-1.37762e-13
0.00373282
-1.53931e-11
-1.87797e-13
0.00373282
-1.53092e-11
-1.43102e-13
0.00373282
-1.51821e-11
-2.79929e-14
0.00373282
-1.50833e-11
7.08084e-14
0.00373282
-1.50013e-11
8.60617e-14
0.00373282
-1.45492e-11
-7.20964e-14
0.00373282
-1.46423e-11
2.03506e-13
0.00373282
-1.43246e-11
-2.44471e-14
0.00373282
-1.4365e-11
1.21239e-13
0.00373282
-1.397e-11
-2.87932e-14
0.00373282
-1.38587e-11
5.36944e-14
0.00373282
-1.38187e-11
8.08576e-14
0.00373282
-1.33722e-11
-1.12479e-13
0.00373282
-1.35238e-11
5.46586e-14
0.00373282
-1.31646e-11
-1.04995e-14
0.00373282
-1.29925e-11
1.87969e-14
0.00373282
-1.29867e-11
3.71282e-14
0.00373282
-1.26933e-11
-1.00324e-13
0.00373282
-1.26078e-11
-6.38964e-14
0.00373282
-1.24918e-11
3.31425e-15
0.00373282
-1.22232e-11
-1.54929e-13
0.00373282
-1.21598e-11
-7.47613e-14
0.00373282
-1.21261e-11
-3.96939e-14
0.00373282
-1.19904e-11
1.3779e-16
0.00373282
-1.18247e-11
-4.72007e-15
0.00373282
-1.17595e-11
5.38712e-14
0.00373282
-1.18388e-11
1.51423e-13
0.00373282
-1.12944e-11
-2.69275e-13
0.00373282
-1.17381e-11
3.21095e-13
0.00373282
-1.12731e-11
-5.68736e-14
0.00373282
-1.13063e-11
1.32091e-13
0.00373282
-1.09817e-11
-4.69305e-14
0.00373282
-1.10101e-11
1.06208e-13
0.00373282
-1.08426e-11
1.0338e-13
0.00373282
-1.08638e-11
-2.70352e-15
0.00373282
-1.05309e-11
-5.17181e-14
0.00373282
-1.05057e-11
-2.91793e-14
0.00373282
-1.04455e-11
8.16964e-14
0.00373282
-1.03395e-11
5.82165e-14
0.00373282
-9.95679e-12
-2.04379e-13
0.00373282
-1.01353e-11
2.71749e-13
0.00373282
-9.74652e-12
-1.04699e-13
0.00373282
-9.81996e-12
3.12968e-13
0.00373282
-9.45403e-12
-4.57753e-15
0.00373282
-9.289e-12
1.61242e-13
0.00373282
-9.00092e-12
3.32801e-14
0.00373282
-8.50248e-12
2.65816e-13
0.00373282
-7.95533e-12
7.34443e-14
0.00373282
-7.18783e-12
2.17999e-13
0.00373282
-5.59771e-12
-1.6622e-13
0.00373282
-4.52242e-12
2.62674e-13
-6.15927e-13
1.41673e-13
0.00240039
-1.40666e-07
0.0024006
-4.2503e-07
0.00240096
-7.12897e-07
0.00240145
-1.00369e-06
0.0024021
-1.29699e-06
0.00240288
-1.59239e-06
0.00240382
-1.88945e-06
0.0024049
-2.18774e-06
0.00240613
-2.48681e-06
0.00240751
-2.7862e-06
0.00240904
-3.08547e-06
0.00241071
-3.38416e-06
0.00241254
-3.68181e-06
0.00241451
-3.97798e-06
0.00241662
-4.27222e-06
0.00241888
-4.5641e-06
0.00242128
-4.85319e-06
0.00242382
-5.13907e-06
0.0024265
-5.42134e-06
0.00242932
-5.69962e-06
0.00243227
-5.97354e-06
0.00243536
-6.24274e-06
0.00243857
-6.50688e-06
0.00244192
-6.76567e-06
0.00244539
-7.01879e-06
0.00244897
-7.26599e-06
0.00245268
-7.50702e-06
0.00245651
-7.74165e-06
0.00246044
-7.96967e-06
0.00246448
-8.19092e-06
0.00246863
-8.40523e-06
0.00247288
-8.61247e-06
0.00247723
-8.81254e-06
0.00248167
-9.00535e-06
0.0024862
-9.19082e-06
0.00249082
-9.36893e-06
0.00249553
-9.53964e-06
0.00250031
-9.70295e-06
0.00250517
-9.85888e-06
0.0025101
-1.00075e-05
0.0025151
-1.01487e-05
0.00252016
-1.02828e-05
0.00252529
-1.04097e-05
0.00253047
-1.05295e-05
0.00253571
-1.06423e-05
0.002541
-1.07484e-05
0.00254634
-1.08477e-05
0.00255173
-1.09405e-05
0.00255715
-1.10268e-05
0.00256262
-1.11069e-05
0.00256812
-1.11808e-05
0.00257365
-1.12489e-05
0.00257921
-1.13111e-05
0.0025848
-1.13678e-05
0.00259041
-1.1419e-05
0.00259605
-1.14651e-05
0.0026017
-1.1506e-05
0.00260738
-1.15421e-05
0.00261306
-1.15735e-05
0.00261877
-1.16004e-05
0.00262448
-1.1623e-05
0.0026302
-1.16414e-05
0.00263592
-1.16558e-05
0.00264165
-1.16665e-05
0.00264739
-1.16735e-05
0.00265312
-1.16771e-05
0.00265885
-1.16774e-05
0.00266459
-1.16746e-05
0.00267032
-1.16688e-05
0.00267604
-1.16602e-05
0.00268176
-1.1649e-05
0.00268747
-1.16352e-05
0.00269318
-1.16191e-05
0.00269887
-1.16007e-05
0.00270456
-1.15803e-05
0.00271023
-1.15578e-05
0.00271589
-1.15335e-05
0.00272154
-1.15075e-05
0.00272717
-1.14799e-05
0.00273279
-1.14507e-05
0.00273839
-1.14202e-05
0.00274398
-1.13883e-05
0.00274955
-1.13552e-05
0.00275511
-1.1321e-05
0.00276064
-1.12858e-05
0.00276616
-1.12497e-05
0.00277166
-1.12126e-05
0.00277714
-1.11748e-05
0.0027826
-1.11363e-05
0.00278804
-1.10971e-05
0.00279347
-1.10573e-05
0.00279887
-1.1017e-05
0.00280425
-1.09762e-05
0.00280961
-1.0935e-05
0.00281495
-1.08934e-05
0.00282027
-1.08514e-05
0.00282557
-1.08092e-05
0.00283084
-1.07668e-05
0.0028361
-1.07241e-05
0.00284133
-1.06813e-05
0.00284654
-1.06384e-05
0.00285173
-1.05953e-05
0.0028569
-1.05522e-05
0.00286205
-1.0509e-05
0.00286717
-1.04658e-05
0.00287227
-1.04225e-05
0.00287735
-1.03793e-05
0.00288241
-1.03361e-05
0.00288745
-1.0293e-05
0.00289246
-1.02499e-05
0.00289746
-1.02069e-05
0.00290243
-1.0164e-05
0.00290738
-1.01211e-05
0.00291231
-1.00784e-05
0.00291721
-1.00358e-05
0.0029221
-9.99329e-06
0.00292696
-9.9509e-06
0.0029318
-9.90864e-06
0.00293662
-9.86651e-06
0.00294142
-9.8245e-06
0.0029462
-9.78263e-06
0.00295096
-9.74089e-06
0.00295569
-9.69928e-06
0.0029604
-9.6578e-06
0.0029651
-9.61646e-06
0.00296977
-9.57523e-06
0.00297442
-9.53414e-06
0.00297905
-9.49317e-06
0.00298366
-9.45231e-06
0.00298824
-9.41158e-06
0.00299281
-9.37095e-06
0.00299736
-9.33043e-06
0.00300188
-9.29002e-06
0.00300638
-9.2497e-06
0.00301087
-9.20948e-06
0.00301533
-9.16934e-06
0.00301977
-9.12929e-06
0.0030242
-9.08932e-06
0.0030286
-9.04943e-06
0.00303298
-9.0096e-06
0.00303734
-8.96983e-06
0.00304168
-8.93012e-06
0.003046
-8.89046e-06
0.0030503
-8.85085e-06
0.00305458
-8.81129e-06
0.00305884
-8.77176e-06
0.00306308
-8.73226e-06
0.0030673
-8.69279e-06
0.0030715
-8.65334e-06
0.00307568
-8.61391e-06
0.00307984
-8.57449e-06
0.00308398
-8.53508e-06
0.0030881
-8.49567e-06
0.0030922
-8.45627e-06
0.00309627
-8.41686e-06
0.00310033
-8.37744e-06
0.00310437
-8.33802e-06
0.00310839
-8.29858e-06
0.00311239
-8.25912e-06
0.00311637
-8.21965e-06
0.00312033
-8.18015e-06
0.00312427
-8.14062e-06
0.00312818
-8.10107e-06
0.00313208
-8.06149e-06
0.00313596
-8.02187e-06
0.00313982
-7.98223e-06
0.00314366
-7.94254e-06
0.00314748
-7.90282e-06
0.00315128
-7.86306e-06
0.00315505
-7.82327e-06
0.00315881
-7.78343e-06
0.00316255
-7.74355e-06
0.00316627
-7.70363e-06
0.00316997
-7.66367e-06
0.00317365
-7.62367e-06
0.00317731
-7.58362e-06
0.00318095
-7.54353e-06
0.00318456
-7.50341e-06
0.00318816
-7.46324e-06
0.00319174
-7.42303e-06
0.0031953
-7.38277e-06
0.00319884
-7.34248e-06
0.00320236
-7.30216e-06
0.00320585
-7.26179e-06
0.00320933
-7.22139e-06
0.00321279
-7.18096e-06
0.00321623
-7.14049e-06
0.00321965
-7.09999e-06
0.00322304
-7.05946e-06
0.00322642
-7.0189e-06
0.00322978
-6.97831e-06
0.00323312
-6.93771e-06
0.00323644
-6.89707e-06
0.00323973
-6.85642e-06
0.00324301
-6.81575e-06
0.00324627
-6.77506e-06
0.00324951
-6.73436e-06
0.00325272
-6.69365e-06
0.00325592
-6.65293e-06
0.0032591
-6.6122e-06
0.00326226
-6.57147e-06
0.00326539
-6.53073e-06
0.00326851
-6.49e-06
0.00327161
-6.44927e-06
0.00327469
-6.40854e-06
0.00327775
-6.36782e-06
0.00328078
-6.32712e-06
0.0032838
-6.28643e-06
0.0032868
-6.24575e-06
0.00328978
-6.2051e-06
0.00329274
-6.16446e-06
0.00329567
-6.12385e-06
0.00329859
-6.08327e-06
0.00330149
-6.04271e-06
0.00330437
-6.00219e-06
0.00330723
-5.96171e-06
0.00331007
-5.92126e-06
0.00331289
-5.88086e-06
0.00331569
-5.84049e-06
0.00331847
-5.80018e-06
0.00332124
-5.75991e-06
0.00332398
-5.71969e-06
0.0033267
-5.67953e-06
0.0033294
-5.63942e-06
0.00333209
-5.59938e-06
0.00333475
-5.55939e-06
0.0033374
-5.51947e-06
0.00334002
-5.47962e-06
0.00334263
-5.43983e-06
0.00334522
-5.40012e-06
0.00334779
-5.36048e-06
0.00335034
-5.32092e-06
0.00335287
-5.28144e-06
0.00335538
-5.24203e-06
0.00335787
-5.20272e-06
0.00336034
-5.16349e-06
0.0033628
-5.12434e-06
0.00336523
-5.08529e-06
0.00336765
-5.04633e-06
0.00337005
-5.00746e-06
0.00337242
-4.9687e-06
0.00337478
-4.93003e-06
0.00337713
-4.89146e-06
0.00337945
-4.853e-06
0.00338175
-4.81464e-06
0.00338404
-4.77639e-06
0.00338631
-4.73825e-06
0.00338856
-4.70021e-06
0.00339079
-4.6623e-06
0.003393
-4.62449e-06
0.0033952
-4.58681e-06
0.00339738
-4.54924e-06
0.00339954
-4.51179e-06
0.00340168
-4.47447e-06
0.0034038
-4.43727e-06
0.00340591
-4.40019e-06
0.00340799
-4.36324e-06
0.00341006
-4.32642e-06
0.00341212
-4.28973e-06
0.00341415
-4.25317e-06
0.00341617
-4.21675e-06
0.00341817
-4.18046e-06
0.00342015
-4.14431e-06
0.00342212
-4.10829e-06
0.00342406
-4.07241e-06
0.003426
-4.03667e-06
0.00342791
-4.00108e-06
0.00342981
-3.96563e-06
0.00343169
-3.93032e-06
0.00343355
-3.89516e-06
0.0034354
-3.86014e-06
0.00343723
-3.82527e-06
0.00343904
-3.79055e-06
0.00344084
-3.75598e-06
0.00344262
-3.72157e-06
0.00344438
-3.6873e-06
0.00344613
-3.65319e-06
0.00344786
-3.61923e-06
0.00344957
-3.58543e-06
0.00345127
-3.55179e-06
0.00345295
-3.5183e-06
0.00345462
-3.48497e-06
0.00345627
-3.4518e-06
0.00345791
-3.41879e-06
0.00345952
-3.38595e-06
0.00346113
-3.35326e-06
0.00346272
-3.32074e-06
0.00346429
-3.28838e-06
0.00346585
-3.25618e-06
0.00346739
-3.22415e-06
0.00346891
-3.19229e-06
0.00347043
-3.16059e-06
0.00347192
-3.12906e-06
0.0034734
-3.0977e-06
0.00347487
-3.06651e-06
0.00347632
-3.03548e-06
0.00347776
-3.00463e-06
0.00347918
-2.97395e-06
0.00348059
-2.94343e-06
0.00348198
-2.91309e-06
0.00348336
-2.88292e-06
0.00348472
-2.85292e-06
0.00348607
-2.8231e-06
0.00348741
-2.79344e-06
0.00348873
-2.76396e-06
0.00349004
-2.73466e-06
0.00349133
-2.70553e-06
0.00349261
-2.67657e-06
0.00349388
-2.64779e-06
0.00349513
-2.61918e-06
0.00349637
-2.59075e-06
0.00349759
-2.5625e-06
0.00349881
-2.53442e-06
0.0035
-2.50651e-06
0.00350119
-2.47878e-06
0.00350236
-2.45123e-06
0.00350352
-2.42385e-06
0.00350467
-2.39665e-06
0.0035058
-2.36962e-06
0.00350692
-2.34277e-06
0.00350803
-2.31609e-06