/*--------------------------------*- C++ -*----------------------------------*\
  =========                 |
  \\      /  F ield         | OpenFOAM: The Open Source CFD Toolbox
   \\    /   O peration     | Website:  https://openfoam.org
    \\  /    A nd           | Version:  7
     \\/     M anipulation  |
\*---------------------------------------------------------------------------*/
FoamFile
{
    version     2.0;
    format      ascii;
    class       volVectorField;
    location    "6";
    object      U;
}
// * * * * * * * * * * * * * * * * * * * * * * * * * * * * * * * * * * * * * //

dimensions      [0 1 -1 0 0 0 0];

internalField   nonuniform List<vector> 
48000
(
(1.00001 -5.53412e-05 0)
(1.00006 -0.000166424 0)
(1.00017 -0.000277962 0)
(1.00034 -0.00038978 0)
(1.00058 -0.000501716 0)
(1.00087 -0.000613607 0)
(1.00122 -0.00072529 0)
(1.00163 -0.000836599 0)
(1.0021 -0.000947367 0)
(1.00264 -0.00105743 0)
(1.00323 -0.00116662 0)
(1.00388 -0.00127479 0)
(1.00459 -0.00138176 0)
(1.00537 -0.00148739 0)
(1.0062 -0.00159152 0)
(1.00709 -0.001694 0)
(1.00805 -0.0017947 0)
(1.00905 -0.00189349 0)
(1.01012 -0.00199022 0)
(1.01125 -0.00208479 0)
(1.01243 -0.00217707 0)
(1.01366 -0.00226697 0)
(1.01495 -0.00235438 0)
(1.01629 -0.00243921 0)
(1.01769 -0.00252139 0)
(1.01913 -0.00260084 0)
(1.02063 -0.0026775 0)
(1.02217 -0.00275132 0)
(1.02376 -0.00282224 0)
(1.0254 -0.00289024 0)
(1.02708 -0.00295529 0)
(1.0288 -0.00301737 0)
(1.03056 -0.00307646 0)
(1.03237 -0.00313256 0)
(1.03421 -0.00318569 0)
(1.03609 -0.00323585 0)
(1.03801 -0.00328305 0)
(1.03996 -0.00332734 0)
(1.04194 -0.00336873 0)
(1.04396 -0.00340727 0)
(1.046 -0.00344301 0)
(1.04808 -0.00347598 0)
(1.05017 -0.00350625 0)
(1.0523 -0.00353386 0)
(1.05445 -0.00355889 0)
(1.05662 -0.0035814 0)
(1.05881 -0.00360145 0)
(1.06102 -0.00361911 0)
(1.06325 -0.00363446 0)
(1.0655 -0.00364757 0)
(1.06777 -0.00365852 0)
(1.07005 -0.00366738 0)
(1.07234 -0.00367422 0)
(1.07464 -0.00367914 0)
(1.07696 -0.0036822 0)
(1.07928 -0.00368348 0)
(1.08162 -0.00368306 0)
(1.08396 -0.00368101 0)
(1.08631 -0.00367742 0)
(1.08867 -0.00367236 0)
(1.09103 -0.0036659 0)
(1.09339 -0.00365811 0)
(1.09576 -0.00364906 0)
(1.09814 -0.00363883 0)
(1.10051 -0.00362749 0)
(1.10288 -0.00361509 0)
(1.10526 -0.0036017 0)
(1.10764 -0.00358739 0)
(1.11001 -0.00357222 0)
(1.11238 -0.00355624 0)
(1.11476 -0.00353951 0)
(1.11713 -0.00352208 0)
(1.11949 -0.00350401 0)
(1.12186 -0.00348535 0)
(1.12421 -0.00346615 0)
(1.12657 -0.00344645 0)
(1.12892 -0.00342629 0)
(1.13126 -0.00340572 0)
(1.1336 -0.00338478 0)
(1.13594 -0.00336351 0)
(1.13827 -0.00334194 0)
(1.14059 -0.00332011 0)
(1.14291 -0.00329805 0)
(1.14521 -0.00327579 0)
(1.14752 -0.00325336 0)
(1.14981 -0.00323079 0)
(1.1521 -0.00320811 0)
(1.15438 -0.00318533 0)
(1.15665 -0.00316248 0)
(1.15892 -0.00313959 0)
(1.16117 -0.00311667 0)
(1.16342 -0.00309374 0)
(1.16566 -0.00307082 0)
(1.1679 -0.00304792 0)
(1.17012 -0.00302507 0)
(1.17234 -0.00300226 0)
(1.17454 -0.00297952 0)
(1.17674 -0.00295686 0)
(1.17893 -0.00293429 0)
(1.18112 -0.00291182 0)
(1.18329 -0.00288945 0)
(1.18545 -0.00286719 0)
(1.18761 -0.00284506 0)
(1.18976 -0.00282305 0)
(1.1919 -0.00280118 0)
(1.19403 -0.00277944 0)
(1.19615 -0.00275785 0)
(1.19827 -0.0027364 0)
(1.20037 -0.0027151 0)
(1.20247 -0.00269396 0)
(1.20456 -0.00267296 0)
(1.20664 -0.00265212 0)
(1.20871 -0.00263144 0)
(1.21077 -0.00261091 0)
(1.21283 -0.00259054 0)
(1.21487 -0.00257033 0)
(1.21691 -0.00255028 0)
(1.21894 -0.00253038 0)
(1.22096 -0.00251064 0)
(1.22297 -0.00249105 0)
(1.22498 -0.00247161 0)
(1.22698 -0.00245233 0)
(1.22897 -0.0024332 0)
(1.23095 -0.00241422 0)
(1.23292 -0.00239538 0)
(1.23488 -0.00237669 0)
(1.23684 -0.00235814 0)
(1.23879 -0.00233973 0)
(1.24073 -0.00232146 0)
(1.24266 -0.00230332 0)
(1.24459 -0.00228532 0)
(1.2465 -0.00226745 0)
(1.24841 -0.00224971 0)
(1.25031 -0.00223209 0)
(1.2522 -0.0022146 0)
(1.25409 -0.00219722 0)
(1.25597 -0.00217997 0)
(1.25784 -0.00216283 0)
(1.2597 -0.00214581 0)
(1.26155 -0.00212889 0)
(1.2634 -0.00211209 0)
(1.26524 -0.00209539 0)
(1.26707 -0.0020788 0)
(1.26889 -0.0020623 0)
(1.27071 -0.00204591 0)
(1.27251 -0.00202962 0)
(1.27431 -0.00201342 0)
(1.27611 -0.00199731 0)
(1.27789 -0.0019813 0)
(1.27967 -0.00196538 0)
(1.28144 -0.00194954 0)
(1.2832 -0.00193379 0)
(1.28495 -0.00191813 0)
(1.2867 -0.00190255 0)
(1.28844 -0.00188705 0)
(1.29017 -0.00187163 0)
(1.29189 -0.00185629 0)
(1.2936 -0.00184103 0)
(1.29531 -0.00182585 0)
(1.29701 -0.00181074 0)
(1.2987 -0.0017957 0)
(1.30038 -0.00178074 0)
(1.30206 -0.00176585 0)
(1.30373 -0.00175103 0)
(1.30539 -0.00173629 0)
(1.30704 -0.00172161 0)
(1.30869 -0.001707 0)
(1.31032 -0.00169246 0)
(1.31195 -0.00167799 0)
(1.31357 -0.00166359 0)
(1.31518 -0.00164926 0)
(1.31679 -0.00163499 0)
(1.31839 -0.00162078 0)
(1.31998 -0.00160665 0)
(1.32156 -0.00159258 0)
(1.32313 -0.00157857 0)
(1.3247 -0.00156463 0)
(1.32625 -0.00155076 0)
(1.3278 -0.00153695 0)
(1.32934 -0.00152321 0)
(1.33088 -0.00150953 0)
(1.3324 -0.00149591 0)
(1.33392 -0.00148236 0)
(1.33543 -0.00146888 0)
(1.33693 -0.00145546 0)
(1.33842 -0.00144211 0)
(1.3399 -0.00142882 0)
(1.34138 -0.00141559 0)
(1.34285 -0.00140244 0)
(1.34431 -0.00138935 0)
(1.34576 -0.00137632 0)
(1.3472 -0.00136336 0)
(1.34864 -0.00135047 0)
(1.35006 -0.00133764 0)
(1.35148 -0.00132488 0)
(1.35289 -0.00131219 0)
(1.35429 -0.00129957 0)
(1.35569 -0.00128701 0)
(1.35707 -0.00127452 0)
(1.35845 -0.0012621 0)
(1.35982 -0.00124975 0)
(1.36118 -0.00123746 0)
(1.36253 -0.00122525 0)
(1.36388 -0.0012131 0)
(1.36521 -0.00120102 0)
(1.36654 -0.00118902 0)
(1.36786 -0.00117708 0)
(1.36917 -0.00116522 0)
(1.37047 -0.00115342 0)
(1.37176 -0.00114169 0)
(1.37305 -0.00113004 0)
(1.37433 -0.00111846 0)
(1.3756 -0.00110695 0)
(1.37686 -0.00109551 0)
(1.37811 -0.00108414 0)
(1.37935 -0.00107285 0)
(1.38059 -0.00106162 0)
(1.38182 -0.00105047 0)
(1.38304 -0.0010394 0)
(1.38425 -0.00102839 0)
(1.38545 -0.00101746 0)
(1.38665 -0.0010066 0)
(1.38783 -0.000995817 0)
(1.38901 -0.000985106 0)
(1.39018 -0.000974468 0)
(1.39134 -0.000963904 0)
(1.39249 -0.000953414 0)
(1.39364 -0.000942998 0)
(1.39478 -0.000932655 0)
(1.3959 -0.000922387 0)
(1.39702 -0.000912193 0)
(1.39814 -0.000902073 0)
(1.39924 -0.000892028 0)
(1.40034 -0.000882056 0)
(1.40142 -0.000872159 0)
(1.4025 -0.000862336 0)
(1.40358 -0.000852587 0)
(1.40464 -0.000842912 0)
(1.40569 -0.000833312 0)
(1.40674 -0.000823785 0)
(1.40778 -0.000814333 0)
(1.40881 -0.000804955 0)
(1.40983 -0.000795651 0)
(1.41085 -0.00078642 0)
(1.41186 -0.000777264 0)
(1.41286 -0.00076818 0)
(1.41385 -0.000759171 0)
(1.41483 -0.000750235 0)
(1.41581 -0.000741372 0)
(1.41678 -0.000732583 0)
(1.41774 -0.000723866 0)
(1.41869 -0.000715222 0)
(1.41963 -0.000706651 0)
(1.42057 -0.000698153 0)
(1.4215 -0.000689727 0)
(1.42242 -0.000681373 0)
(1.42333 -0.000673091 0)
(1.42424 -0.00066488 0)
(1.42514 -0.000656742 0)
(1.42603 -0.000648674 0)
(1.42691 -0.000640678 0)
(1.42778 -0.000632753 0)
(1.42865 -0.000624898 0)
(1.42951 -0.000617114 0)
(1.43037 -0.000609399 0)
(1.43121 -0.000601755 0)
(1.43205 -0.00059418 0)
(1.43288 -0.000586675 0)
(1.4337 -0.000579239 0)
(1.43452 -0.000571871 0)
(1.43533 -0.000564572 0)
(1.43613 -0.000557342 0)
(1.43692 -0.000550179 0)
(1.43771 -0.000543084 0)
(1.43849 -0.000536056 0)
(1.43926 -0.000529095 0)
(1.44003 -0.000522201 0)
(1.44079 -0.000515374 0)
(1.44154 -0.000508612 0)
(1.44228 -0.000501917 0)
(1.44302 -0.000495286 0)
(1.44375 -0.000488721 0)
(1.44447 -0.000482221 0)
(1.44519 -0.000475785 0)
(1.4459 -0.000469413 0)
(1.4466 -0.000463105 0)
(1.4473 -0.00045686 0)
(1.44799 -0.000450679 0)
(1.44867 -0.00044456 0)
(1.44935 -0.000438503 0)
(1.45002 -0.000432509 0)
(1.45068 -0.000426576 0)
(1.45133 -0.000420705 0)
(1.45198 -0.000414894 0)
(1.45263 -0.000409144 0)
(1.45326 -0.000403454 0)
(1.45389 -0.000397824 0)
(1.45452 -0.000392253 0)
(1.45513 -0.000386742 0)
(1.45575 -0.000381289 0)
(1.45635 -0.000375894 0)
(1.45695 -0.000370558 0)
(1.45754 -0.000365279 0)
(1.45813 -0.000360057 0)
(1.45871 -0.000354892 0)
(1.45928 -0.000349783 0)
(1.45985 -0.00034473 0)
(1.46041 -0.000339733 0)
(1.46096 -0.000334791 0)
(1.46151 -0.000329904 0)
(1.46206 -0.000325071 0)
(1.46259 -0.000320293 0)
(1.46313 -0.000315568 0)
(1.46365 -0.000310896 0)
(1.46417 -0.000306277 0)
(1.46469 -0.00030171 0)
(1.46519 -0.000297195 0)
(1.4657 -0.000292732 0)
(1.46619 -0.00028832 0)
(1.46669 -0.000283959 0)
(1.46717 -0.000279648 0)
(1.46765 -0.000275387 0)
(1.46813 -0.000271175 0)
(1.4686 -0.000267012 0)
(1.46906 -0.000262898 0)
(1.46952 -0.000258832 0)
(1.46997 -0.000254813 0)
(1.47042 -0.000250842 0)
(1.47086 -0.000246918 0)
(1.4713 -0.000243039 0)
(1.47173 -0.000239206 0)
(1.47216 -0.000235419 0)
(1.47258 -0.000231676 0)
(1.473 -0.000227978 0)
(1.47341 -0.000224323 0)
(1.47381 -0.000220711 0)
(1.47422 -0.000217143 0)
(1.47461 -0.000213616 0)
(1.475 -0.000210131 0)
(1.47539 -0.000206687 0)
(1.47577 -0.000203283 0)
(1.47615 -0.000199919 0)
(1.47652 -0.000196594 0)
(1.47689 -0.000193308 0)
(1.47725 -0.00019006 0)
(1.47761 -0.000186849 0)
(1.47796 -0.000183674 0)
(1.47831 -0.000180536 0)
(1.47865 -0.000177433 0)
(1.47899 -0.000174364 0)
(1.47933 -0.00017133 0)
(1.47966 -0.000168328 0)
(1.47998 -0.000165359 0)
(1.4803 -0.000162421 0)
(1.48062 -0.000159515 0)
(1.48093 -0.000156638 0)
(1.48124 -0.00015379 0)
(1.48154 -0.000150971 0)
(1.48184 -0.000148179 0)
(1.48213 -0.000145415 0)
(1.48242 -0.000142676 0)
(1.48271 -0.000139962 0)
(1.48299 -0.000137273 0)
(1.48327 -0.000134607 0)
(1.48354 -0.000131964 0)
(1.48381 -0.000129342 0)
(1.48407 -0.000126742 0)
(1.48433 -0.000124162 0)
(1.48458 -0.000121601 0)
(1.48484 -0.000119059 0)
(1.48508 -0.000116535 0)
(1.48532 -0.000114028 0)
(1.48556 -0.000111538 0)
(1.48579 -0.000109064 0)
(1.48602 -0.000106606 0)
(1.48625 -0.000104162 0)
(1.48647 -0.000101733 0)
(1.48668 -9.93176e-05 0)
(1.48689 -9.69161e-05 0)
(1.4871 -9.4528e-05 0)
(1.4873 -9.2153e-05 0)
(1.4875 -8.97911e-05 0)
(1.4877 -8.7442e-05 0)
(1.48789 -8.5106e-05 0)
(1.48807 -8.2783e-05 0)
(1.48825 -8.04733e-05 0)
(1.48843 -7.8177e-05 0)
(1.4886 -7.58947e-05 0)
(1.48877 -7.36268e-05 0)
(1.48893 -7.13737e-05 0)
(1.48909 -6.91362e-05 0)
(1.48924 -6.6915e-05 0)
(1.48939 -6.47108e-05 0)
(1.48954 -6.25247e-05 0)
(1.48968 -6.03576e-05 0)
(1.48981 -5.82107e-05 0)
(1.48995 -5.6085e-05 0)
(1.49007 -5.39819e-05 0)
(1.4902 -5.19027e-05 0)
(1.49032 -4.98487e-05 0)
(1.49043 -4.78214e-05 0)
(1.49054 -4.58222e-05 0)
(1.49065 -4.38527e-05 0)
(1.49075 -4.19143e-05 0)
(1.49084 -4.00088e-05 0)
(1.49094 -3.81375e-05 0)
(1.49103 -3.63022e-05 0)
(1.49111 -3.45043e-05 0)
(1.49119 -3.27454e-05 0)
(1.49127 -3.10271e-05 0)
(1.49134 -2.93508e-05 0)
(1.49141 -2.77178e-05 0)
(1.49148 -2.61296e-05 0)
(1.49154 -2.45875e-05 0)
(1.4916 -2.30925e-05 0)
(1.49166 -2.16458e-05 0)
(1.49171 -2.02483e-05 0)
(1.49176 -1.8901e-05 0)
(1.4918 -1.76045e-05 0)
(1.49185 -1.63595e-05 0)
(1.49189 -1.51664e-05 0)
(1.49192 -1.40256e-05 0)
(1.49196 -1.29372e-05 0)
(1.49199 -1.19012e-05 0)
(1.49202 -1.09176e-05 0)
(1.49204 -9.98604e-06 0)
(1.49207 -9.10613e-06 0)
(1.49209 -8.27731e-06 0)
(1.49211 -7.49878e-06 0)
(1.49213 -6.76967e-06 0)
(1.49215 -6.08904e-06 0)
(1.49216 -5.45569e-06 0)
(1.49218 -4.86829e-06 0)
(1.49219 -4.32551e-06 0)
(1.4922 -3.82581e-06 0)
(1.49221 -3.36752e-06 0)
(1.49222 -2.94902e-06 0)
(1.49222 -2.56846e-06 0)
(1.49223 -2.22398e-06 0)
(1.49224 -1.91367e-06 0)
(1.49224 -1.63558e-06 0)
(1.49225 -1.38771e-06 0)
(1.49225 -1.16807e-06 0)
(1.49225 -9.74625e-07 0)
(1.49225 -8.05385e-07 0)
(1.49226 -6.58438e-07 0)
(1.49226 -5.31773e-07 0)
(1.49226 -4.23521e-07 0)
(1.49226 -3.31888e-07 0)
(1.49226 -2.55138e-07 0)
(1.49226 -1.91525e-07 0)
(1.49226 -1.39534e-07 0)
(1.49226 -9.76838e-08 0)
(1.49226 -6.45553e-08 0)
(1.49226 -3.88791e-08 0)
(1.49226 -1.94932e-08 0)
(1.49226 -5.4054e-09 0)
(1.49226 4.42188e-09 0)
(1.49226 1.08239e-08 0)
(1.49226 1.44633e-08 0)
(1.49226 1.60168e-08 0)
(1.49226 1.60247e-08 0)
(1.49226 1.49334e-08 0)
(1.49226 1.3124e-08 0)
(1.49226 1.08684e-08 0)
(1.49226 8.39873e-09 0)
(1.49226 5.96181e-09 0)
(1.49226 3.5965e-09 0)
(1.49226 1.4295e-09 0)
(1.49226 -4.59011e-10 0)
(1.49226 -2.10067e-09 0)
(1.49226 -3.46691e-09 0)
(1.49226 -4.52537e-09 0)
(1.49226 -5.33773e-09 0)
(1.49226 -5.94719e-09 0)
(1.49226 -6.33862e-09 0)
(1.49226 -6.58763e-09 0)
(1.49226 -6.66102e-09 0)
(1.49226 -6.68123e-09 0)
(1.49226 -6.58025e-09 0)
(1.49226 -6.4273e-09 0)
(1.49226 -6.28399e-09 0)
(1.49226 -6.06259e-09 0)
(1.49226 -5.83756e-09 0)
(1.49226 -5.64062e-09 0)
(1.49226 -5.45409e-09 0)
(1.49226 -5.28722e-09 0)
(1.49226 -5.055e-09 0)
(1.49226 -4.89732e-09 0)
(1.49226 -4.78552e-09 0)
(1.49226 -4.63133e-09 0)
(1.49226 -4.50639e-09 0)
(1.49226 -4.38807e-09 0)
(1.49226 -4.29042e-09 0)
(1.49226 -4.1832e-09 0)
(1.49226 -4.09004e-09 0)
(1.49226 -4.00583e-09 0)
(1.49226 -3.91274e-09 0)
(1.49226 -3.85515e-09 0)
(1.49226 -3.73822e-09 0)
(1.49226 -3.66213e-09 0)
(1.49226 -3.61053e-09 0)
(1.49226 -3.50245e-09 0)
(1.49226 -3.41216e-09 0)
(1.49226 -3.40339e-09 0)
(1.49226 -3.26333e-09 0)
(1.49226 -3.21256e-09 0)
(1.49226 -3.16691e-09 0)
(1.49226 -3.07201e-09 0)
(1.49226 -3.01994e-09 0)
(1.49226 -2.96464e-09 0)
(1.49226 -2.88535e-09 0)
(1.49226 -2.85126e-09 0)
(1.49226 -2.82016e-09 0)
(1.49226 -2.7054e-09 0)
(1.49226 -2.68449e-09 0)
(1.49226 -2.63122e-09 0)
(1.49226 -2.55189e-09 0)
(1.49226 -2.52194e-09 0)
(1.49226 -2.48066e-09 0)
(1.49226 -2.40269e-09 0)
(1.49226 -2.40036e-09 0)
(1.49226 -2.32865e-09 0)
(1.49226 -2.26422e-09 0)
(1.49226 -2.27368e-09 0)
(1.49226 -2.20594e-09 0)
(1.49226 -2.13653e-09 0)
(1.49226 -2.16577e-09 0)
(1.49226 -2.08973e-09 0)
(1.49226 -2.05112e-09 0)
(1.49226 -2.04499e-09 0)
(1.49226 -1.99014e-09 0)
(1.49226 -1.95798e-09 0)
(1.49226 -1.92108e-09 0)
(1.49226 -1.88294e-09 0)
(1.49226 -1.87445e-09 0)
(1.49226 -1.83176e-09 0)
(1.49226 -1.79616e-09 0)
(1.49226 -1.7467e-09 0)
(1.49226 -1.72397e-09 0)
(1.49226 -1.7108e-09 0)
(1.49226 -1.65075e-09 0)
(1.49226 -1.62045e-09 0)
(1.49226 -1.60639e-09 0)
(1.49226 -1.5609e-09 0)
(1.49226 -1.53446e-09 0)
(1.49226 -1.53268e-09 0)
(1.49226 -1.49442e-09 0)
(1.49226 -1.45881e-09 0)
(1.49226 -1.45048e-09 0)
(1.49226 -1.44324e-09 0)
(1.49226 -1.43111e-09 0)
(1.49226 -1.42525e-09 0)
(1.49226 -1.36147e-09 0)
(1.49226 -1.38525e-09 0)
(1.49226 -1.33379e-09 0)
(1.49226 -1.34386e-09 0)
(1.49226 -1.29245e-09 0)
(1.49226 -1.28023e-09 0)
(1.49226 -1.2771e-09 0)
(1.49226 -1.21e-09 0)
(1.49226 -1.23666e-09 0)
(1.49226 -1.18724e-09 0)
(1.49226 -1.1811e-09 0)
(1.49226 -1.16855e-09 0)
(1.49226 -1.13518e-09 0)
(1.49226 -1.12139e-09 0)
(1.49226 -1.11338e-09 0)
(1.49226 -1.07137e-09 0)
(1.49226 -1.06421e-09 0)
(1.49226 -1.0653e-09 0)
(1.49226 -1.04978e-09 0)
(1.49226 -1.03474e-09 0)
(1.49226 -1.02819e-09 0)
(1.49226 -1.0385e-09 0)
(1.49226 -9.51148e-10 0)
(1.49226 -1.04406e-09 0)
(1.49226 -9.65632e-10 0)
(1.49226 -9.75657e-10 0)
(1.49226 -9.34866e-10 0)
(1.49226 -9.37454e-10 0)
(1.49226 -9.26845e-10 0)
(1.49226 -9.15914e-10 0)
(1.49226 -8.78922e-10 0)
(1.49226 -8.76341e-10 0)
(1.49226 -8.702e-10 0)
(1.49226 -8.65273e-10 0)
(1.49226 -8.05349e-10 0)
(1.49226 -8.48314e-10 0)
(1.49226 -7.8478e-10 0)
(1.49226 -8.21719e-10 0)
(1.49226 -7.73234e-10 0)
(1.49226 -7.64127e-10 0)
(1.49226 -7.29891e-10 0)
(1.49226 -6.98587e-10 0)
(1.49226 -6.36577e-10 0)
(1.49226 -5.90558e-10 0)
(1.49226 -4.26467e-10 0)
(1.49226 -3.74368e-10 0)
(1.49226 -4.54764e-11 0)
(1.00001 -0.000165028 0)
(1.00006 -0.000496281 0)
(1.00017 -0.00082889 0)
(1.00035 -0.00116233 0)
(1.00059 -0.00149611 0)
(1.00089 -0.00182973 0)
(1.00125 -0.00216271 0)
(1.00167 -0.00249454 0)
(1.00215 -0.00282472 0)
(1.00269 -0.00315276 0)
(1.0033 -0.00347815 0)
(1.00397 -0.00380041 0)
(1.00469 -0.00411907 0)
(1.00548 -0.00443365 0)
(1.00633 -0.0047437 0)
(1.00725 -0.00504877 0)
(1.00822 -0.00534846 0)
(1.00925 -0.00564234 0)
(1.01033 -0.00593005 0)
(1.01148 -0.00621121 0)
(1.01268 -0.00648549 0)
(1.01394 -0.00675257 0)
(1.01525 -0.00701217 0)
(1.01662 -0.00726402 0)
(1.01804 -0.00750788 0)
(1.01951 -0.00774354 0)
(1.02103 -0.00797082 0)
(1.0226 -0.00818957 0)
(1.02422 -0.00839965 0)
(1.02588 -0.00860096 0)
(1.02758 -0.00879342 0)
(1.02933 -0.00897699 0)
(1.03113 -0.00915163 0)
(1.03296 -0.00931735 0)
(1.03483 -0.00947417 0)
(1.03673 -0.00962212 0)
(1.03868 -0.00976128 0)
(1.04065 -0.00989172 0)
(1.04266 -0.0100135 0)
(1.0447 -0.0101269 0)
(1.04677 -0.0102319 0)
(1.04887 -0.0103286 0)
(1.05099 -0.0104174 0)
(1.05314 -0.0104982 0)
(1.05531 -0.0105714 0)
(1.0575 -0.0106371 0)
(1.05972 -0.0106955 0)
(1.06195 -0.0107469 0)
(1.0642 -0.0107914 0)
(1.06647 -0.0108293 0)
(1.06876 -0.0108608 0)
(1.07106 -0.0108861 0)
(1.07337 -0.0109054 0)
(1.07569 -0.0109191 0)
(1.07802 -0.0109273 0)
(1.08037 -0.0109302 0)
(1.08272 -0.0109281 0)
(1.08508 -0.0109213 0)
(1.08745 -0.0109099 0)
(1.08982 -0.0108941 0)
(1.0922 -0.0108743 0)
(1.09458 -0.0108505 0)
(1.09696 -0.010823 0)
(1.09935 -0.0107921 0)
(1.10174 -0.0107578 0)
(1.10413 -0.0107205 0)
(1.10651 -0.0106803 0)
(1.1089 -0.0106374 0)
(1.11129 -0.0105919 0)
(1.11368 -0.010544 0)
(1.11606 -0.010494 0)
(1.11844 -0.0104419 0)
(1.12082 -0.0103879 0)
(1.1232 -0.0103322 0)
(1.12557 -0.0102749 0)
(1.12793 -0.0102161 0)
(1.13029 -0.010156 0)
(1.13265 -0.0100947 0)
(1.135 -0.0100323 0)
(1.13734 -0.00996888 0)
(1.13968 -0.0099046 0)
(1.14201 -0.00983955 0)
(1.14434 -0.00977381 0)
(1.14665 -0.00970749 0)
(1.14896 -0.00964066 0)
(1.15127 -0.00957341 0)
(1.15356 -0.00950581 0)
(1.15585 -0.00943793 0)
(1.15813 -0.00936983 0)
(1.1604 -0.00930159 0)
(1.16266 -0.00923326 0)
(1.16492 -0.00916489 0)
(1.16716 -0.00909653 0)
(1.1694 -0.00902824 0)
(1.17163 -0.00896004 0)
(1.17385 -0.00889199 0)
(1.17606 -0.00882412 0)
(1.17826 -0.00875647 0)
(1.18046 -0.00868906 0)
(1.18264 -0.00862192 0)
(1.18482 -0.00855509 0)
(1.18698 -0.00848857 0)
(1.18914 -0.0084224 0)
(1.19129 -0.00835659 0)
(1.19343 -0.00829117 0)
(1.19556 -0.00822613 0)
(1.19768 -0.0081615 0)
(1.19979 -0.00809729 0)
(1.2019 -0.00803351 0)
(1.20399 -0.00797016 0)
(1.20608 -0.00790725 0)
(1.20815 -0.0078448 0)
(1.21022 -0.00778279 0)
(1.21228 -0.00772124 0)
(1.21432 -0.00766014 0)
(1.21636 -0.0075995 0)
(1.21839 -0.00753932 0)
(1.22042 -0.00747959 0)
(1.22243 -0.00742032 0)
(1.22443 -0.00736151 0)
(1.22643 -0.00730314 0)
(1.22841 -0.00724522 0)
(1.23039 -0.00718774 0)
(1.23236 -0.00713069 0)
(1.23432 -0.00707409 0)
(1.23627 -0.00701791 0)
(1.23821 -0.00696215 0)
(1.24014 -0.00690681 0)
(1.24207 -0.00685188 0)
(1.24398 -0.00679735 0)
(1.24589 -0.00674322 0)
(1.24779 -0.00668949 0)
(1.24968 -0.00663614 0)
(1.25156 -0.00658317 0)
(1.25343 -0.00653057 0)
(1.25529 -0.00647833 0)
(1.25715 -0.00642646 0)
(1.259 -0.00637494 0)
(1.26083 -0.00632376 0)
(1.26266 -0.00627292 0)
(1.26448 -0.00622242 0)
(1.2663 -0.00617224 0)
(1.2681 -0.00612239 0)
(1.2699 -0.00607285 0)
(1.27168 -0.00602361 0)
(1.27346 -0.00597468 0)
(1.27523 -0.00592605 0)
(1.277 -0.00587771 0)
(1.27875 -0.00582965 0)
(1.28049 -0.00578188 0)
(1.28223 -0.00573438 0)
(1.28396 -0.00568716 0)
(1.28568 -0.0056402 0)
(1.28739 -0.00559351 0)
(1.28909 -0.00554707 0)
(1.29079 -0.00550089 0)
(1.29248 -0.00545497 0)
(1.29416 -0.00540928 0)
(1.29583 -0.00536385 0)
(1.29749 -0.00531865 0)
(1.29914 -0.00527369 0)
(1.30079 -0.00522896 0)
(1.30242 -0.00518447 0)
(1.30405 -0.00514021 0)
(1.30567 -0.00509617 0)
(1.30728 -0.00505236 0)
(1.30889 -0.00500877 0)
(1.31048 -0.0049654 0)
(1.31207 -0.00492225 0)
(1.31365 -0.00487932 0)
(1.31522 -0.00483661 0)
(1.31678 -0.00479411 0)
(1.31833 -0.00475182 0)
(1.31988 -0.00470974 0)
(1.32141 -0.00466788 0)
(1.32294 -0.00462623 0)
(1.32446 -0.00458479 0)
(1.32597 -0.00454355 0)
(1.32748 -0.00450253 0)
(1.32897 -0.00446171 0)
(1.33046 -0.0044211 0)
(1.33194 -0.0043807 0)
(1.33341 -0.0043405 0)
(1.33487 -0.00430052 0)
(1.33632 -0.00426074 0)
(1.33777 -0.00422116 0)
(1.3392 -0.0041818 0)
(1.34063 -0.00414264 0)
(1.34205 -0.00410369 0)
(1.34346 -0.00406495 0)
(1.34486 -0.00402641 0)
(1.34626 -0.00398809 0)
(1.34765 -0.00394997 0)
(1.34902 -0.00391207 0)
(1.35039 -0.00387437 0)
(1.35175 -0.00383688 0)
(1.35311 -0.0037996 0)
(1.35445 -0.00376254 0)
(1.35579 -0.00372568 0)
(1.35712 -0.00368904 0)
(1.35844 -0.00365261 0)
(1.35975 -0.0036164 0)
(1.36105 -0.00358039 0)
(1.36235 -0.0035446 0)
(1.36363 -0.00350903 0)
(1.36491 -0.00347367 0)
(1.36618 -0.00343853 0)
(1.36744 -0.0034036 0)
(1.36869 -0.00336889 0)
(1.36994 -0.0033344 0)
(1.37118 -0.00330012 0)
(1.3724 -0.00326606 0)
(1.37362 -0.00323222 0)
(1.37484 -0.0031986 0)
(1.37604 -0.0031652 0)
(1.37724 -0.00313202 0)
(1.37842 -0.00309906 0)
(1.3796 -0.00306632 0)
(1.38077 -0.0030338 0)
(1.38194 -0.0030015 0)
(1.38309 -0.00296942 0)
(1.38424 -0.00293756 0)
(1.38538 -0.00290593 0)
(1.38651 -0.00287451 0)
(1.38763 -0.00284332 0)
(1.38874 -0.00281235 0)
(1.38985 -0.0027816 0)
(1.39095 -0.00275107 0)
(1.39204 -0.00272077 0)
(1.39312 -0.00269069 0)
(1.39419 -0.00266083 0)
(1.39526 -0.00263119 0)
(1.39632 -0.00260177 0)
(1.39737 -0.00257258 0)
(1.39841 -0.00254361 0)
(1.39944 -0.00251486 0)
(1.40047 -0.00248633 0)
(1.40149 -0.00245802 0)
(1.4025 -0.00242993 0)
(1.4035 -0.00240206 0)
(1.4045 -0.00237442 0)
(1.40548 -0.00234699 0)
(1.40646 -0.00231979 0)
(1.40743 -0.0022928 0)
(1.4084 -0.00226603 0)
(1.40935 -0.00223948 0)
(1.4103 -0.00221315 0)
(1.41124 -0.00218703 0)
(1.41218 -0.00216114 0)
(1.4131 -0.00213545 0)
(1.41402 -0.00210999 0)
(1.41493 -0.00208474 0)
(1.41584 -0.00205971 0)
(1.41673 -0.00203488 0)
(1.41762 -0.00201028 0)
(1.4185 -0.00198588 0)
(1.41937 -0.0019617 0)
(1.42024 -0.00193773 0)
(1.4211 -0.00191397 0)
(1.42195 -0.00189042 0)
(1.42279 -0.00186708 0)
(1.42363 -0.00184395 0)
(1.42446 -0.00182103 0)
(1.42528 -0.00179831 0)
(1.4261 -0.0017758 0)
(1.42691 -0.0017535 0)
(1.42771 -0.0017314 0)
(1.4285 -0.0017095 0)
(1.42929 -0.00168781 0)
(1.43007 -0.00166632 0)
(1.43084 -0.00164503 0)
(1.43161 -0.00162394 0)
(1.43236 -0.00160305 0)
(1.43312 -0.00158236 0)
(1.43386 -0.00156186 0)
(1.4346 -0.00154157 0)
(1.43533 -0.00152146 0)
(1.43606 -0.00150155 0)
(1.43677 -0.00148184 0)
(1.43748 -0.00146232 0)
(1.43819 -0.00144299 0)
(1.43889 -0.00142385 0)
(1.43958 -0.0014049 0)
(1.44026 -0.00138614 0)
(1.44094 -0.00136757 0)
(1.44161 -0.00134918 0)
(1.44228 -0.00133098 0)
(1.44293 -0.00131296 0)
(1.44359 -0.00129513 0)
(1.44423 -0.00127748 0)
(1.44487 -0.00126001 0)
(1.4455 -0.00124272 0)
(1.44613 -0.0012256 0)
(1.44675 -0.00120867 0)
(1.44736 -0.00119192 0)
(1.44797 -0.00117533 0)
(1.44857 -0.00115893 0)
(1.44917 -0.0011427 0)
(1.44976 -0.00112664 0)
(1.45034 -0.00111075 0)
(1.45092 -0.00109503 0)
(1.45149 -0.00107948 0)
(1.45206 -0.0010641 0)
(1.45262 -0.00104889 0)
(1.45317 -0.00103384 0)
(1.45372 -0.00101896 0)
(1.45426 -0.00100424 0)
(1.45479 -0.000989677 0)
(1.45532 -0.00097528 0)
(1.45585 -0.000961043 0)
(1.45637 -0.000946964 0)
(1.45688 -0.000933043 0)
(1.45739 -0.000919279 0)
(1.45789 -0.000905669 0)
(1.45839 -0.000892214 0)
(1.45888 -0.000878911 0)
(1.45936 -0.000865759 0)
(1.45984 -0.000852758 0)
(1.46032 -0.000839906 0)
(1.46079 -0.000827202 0)
(1.46125 -0.000814644 0)
(1.46171 -0.000802232 0)
(1.46216 -0.000789963 0)
(1.46261 -0.000777838 0)
(1.46306 -0.000765854 0)
(1.46349 -0.00075401 0)
(1.46393 -0.000742304 0)
(1.46435 -0.000730736 0)
(1.46478 -0.000719304 0)
(1.46519 -0.000708007 0)
(1.46561 -0.000696843 0)
(1.46601 -0.000685811 0)
(1.46642 -0.000674909 0)
(1.46682 -0.000664136 0)
(1.46721 -0.00065349 0)
(1.4676 -0.00064297 0)
(1.46798 -0.000632574 0)
(1.46836 -0.000622301 0)
(1.46873 -0.000612149 0)
(1.4691 -0.000602117 0)
(1.46947 -0.000592202 0)
(1.46983 -0.000582403 0)
(1.47018 -0.000572717 0)
(1.47053 -0.000563145 0)
(1.47088 -0.000553682 0)
(1.47122 -0.000544329 0)
(1.47156 -0.000535082 0)
(1.47189 -0.000525939 0)
(1.47222 -0.0005169 0)
(1.47254 -0.000507961 0)
(1.47286 -0.00049912 0)
(1.47318 -0.000490375 0)
(1.47349 -0.000481725 0)
(1.47379 -0.000473166 0)
(1.4741 -0.000464697 0)
(1.47439 -0.000456316 0)
(1.47469 -0.000448019 0)
(1.47498 -0.000439805 0)
(1.47526 -0.000431671 0)
(1.47554 -0.000423615 0)
(1.47582 -0.000415635 0)
(1.47609 -0.000407727 0)
(1.47636 -0.000399891 0)
(1.47662 -0.000392122 0)
(1.47688 -0.000384419 0)
(1.47714 -0.000376779 0)
(1.47739 -0.000369201 0)
(1.47764 -0.000361681 0)
(1.47788 -0.000354217 0)
(1.47812 -0.000346808 0)
(1.47836 -0.000339451 0)
(1.47859 -0.000332145 0)
(1.47881 -0.000324886 0)
(1.47904 -0.000317674 0)
(1.47925 -0.000310508 0)
(1.47947 -0.000303384 0)
(1.47968 -0.000296302 0)
(1.47988 -0.000289261 0)
(1.48009 -0.00028226 0)
(1.48028 -0.000275297 0)
(1.48048 -0.000268373 0)
(1.48067 -0.000261486 0)
(1.48085 -0.000254637 0)
(1.48103 -0.000247826 0)
(1.48121 -0.000241053 0)
(1.48138 -0.000234318 0)
(1.48155 -0.000227623 0)
(1.48171 -0.000220968 0)
(1.48187 -0.000214355 0)
(1.48203 -0.000207786 0)
(1.48218 -0.000201262 0)
(1.48232 -0.000194785 0)
(1.48247 -0.000188359 0)
(1.48261 -0.000181985 0)
(1.48274 -0.000175667 0)
(1.48287 -0.000169408 0)
(1.48299 -0.000163211 0)
(1.48312 -0.00015708 0)
(1.48323 -0.000151019 0)
(1.48335 -0.000145031 0)
(1.48345 -0.000139122 0)
(1.48356 -0.000133295 0)
(1.48366 -0.000127555 0)
(1.48376 -0.000121907 0)
(1.48385 -0.000116354 0)
(1.48394 -0.000110901 0)
(1.48402 -0.000105554 0)
(1.4841 -0.000100316 0)
(1.48418 -9.5192e-05 0)
(1.48425 -9.01867e-05 0)
(1.48432 -8.53043e-05 0)
(1.48439 -8.05487e-05 0)
(1.48445 -7.5924e-05 0)
(1.48451 -7.14337e-05 0)
(1.48457 -6.70814e-05 0)
(1.48462 -6.28701e-05 0)
(1.48467 -5.88028e-05 0)
(1.48471 -5.48818e-05 0)
(1.48476 -5.11093e-05 0)
(1.4848 -4.74871e-05 0)
(1.48484 -4.40164e-05 0)
(1.48487 -4.06983e-05 0)
(1.4849 -3.75331e-05 0)
(1.48493 -3.45211e-05 0)
(1.48496 -3.16617e-05 0)
(1.48499 -2.89541e-05 0)
(1.48501 -2.63971e-05 0)
(1.48503 -2.39889e-05 0)
(1.48505 -2.17275e-05 0)
(1.48507 -1.96101e-05 0)
(1.48508 -1.76338e-05 0)
(1.4851 -1.57952e-05 0)
(1.48511 -1.40906e-05 0)
(1.48512 -1.25157e-05 0)
(1.48513 -1.10663e-05 0)
(1.48514 -9.73738e-06 0)
(1.48515 -8.52412e-06 0)
(1.48516 -7.42121e-06 0)
(1.48516 -6.42322e-06 0)
(1.48517 -5.52455e-06 0)
(1.48517 -4.71945e-06 0)
(1.48517 -4.00214e-06 0)
(1.48518 -3.36676e-06 0)
(1.48518 -2.80745e-06 0)
(1.48518 -2.31837e-06 0)
(1.48518 -1.89383e-06 0)
(1.48519 -1.52817e-06 0)
(1.48519 -1.21588e-06 0)
(1.48519 -9.51667e-07 0)
(1.48519 -7.30455e-07 0)
(1.48519 -5.47381e-07 0)
(1.48519 -3.97851e-07 0)
(1.48519 -2.77565e-07 0)
(1.48519 -1.82505e-07 0)
(1.48519 -1.08978e-07 0)
(1.48519 -5.35924e-08 0)
(1.48519 -1.32985e-08 0)
(1.48519 1.45776e-08 0)
(1.48519 3.25497e-08 0)
(1.48519 4.27077e-08 0)
(1.48519 4.68849e-08 0)
(1.48519 4.66289e-08 0)
(1.48519 4.32399e-08 0)
(1.48519 3.77903e-08 0)
(1.48519 3.11718e-08 0)
(1.48519 2.39822e-08 0)
(1.48519 1.67739e-08 0)
(1.48519 9.93515e-09 0)
(1.48519 3.67036e-09 0)
(1.48519 -1.8584e-09 0)
(1.48519 -6.56556e-09 0)
(1.48519 -1.04476e-08 0)
(1.48519 -1.3526e-08 0)
(1.48519 -1.5866e-08 0)
(1.48519 -1.75588e-08 0)
(1.48519 -1.86775e-08 0)
(1.48519 -1.93373e-08 0)
(1.48519 -1.9589e-08 0)
(1.48519 -1.95602e-08 0)
(1.48519 -1.9318e-08 0)
(1.48519 -1.89046e-08 0)
(1.48519 -1.83603e-08 0)
(1.48519 -1.77966e-08 0)
(1.48519 -1.7207e-08 0)
(1.48519 -1.6595e-08 0)
(1.48519 -1.60231e-08 0)
(1.48519 -1.54776e-08 0)
(1.48519 -1.49333e-08 0)
(1.48519 -1.44625e-08 0)
(1.48519 -1.4046e-08 0)
(1.48519 -1.36214e-08 0)
(1.48519 -1.32494e-08 0)
(1.48519 -1.29163e-08 0)
(1.48519 -1.25865e-08 0)
(1.48519 -1.22879e-08 0)
(1.48519 -1.1989e-08 0)
(1.48519 -1.17252e-08 0)
(1.48519 -1.14801e-08 0)
(1.48519 -1.12341e-08 0)
(1.48519 -1.09748e-08 0)
(1.48519 -1.0748e-08 0)
(1.48519 -1.05233e-08 0)
(1.48519 -1.02795e-08 0)
(1.48519 -1.00707e-08 0)
(1.48519 -9.87974e-09 0)
(1.48519 -9.63769e-09 0)
(1.48519 -9.43471e-09 0)
(1.48519 -9.27928e-09 0)
(1.48519 -9.05389e-09 0)
(1.48519 -8.85452e-09 0)
(1.48519 -8.70764e-09 0)
(1.48519 -8.51907e-09 0)
(1.48519 -8.36086e-09 0)
(1.48519 -8.1741e-09 0)
(1.48519 -8.01056e-09 0)
(1.48519 -7.87778e-09 0)
(1.48519 -7.69686e-09 0)
(1.48519 -7.55163e-09 0)
(1.48519 -7.42387e-09 0)
(1.48519 -7.26874e-09 0)
(1.48519 -7.109e-09 0)
(1.48519 -7.00937e-09 0)
(1.48519 -6.86086e-09 0)
(1.48519 -6.72946e-09 0)
(1.48519 -6.61021e-09 0)
(1.48519 -6.46882e-09 0)
(1.48519 -6.35933e-09 0)
(1.48519 -6.25917e-09 0)
(1.48519 -6.12864e-09 0)
(1.48519 -6.0321e-09 0)
(1.48519 -5.92672e-09 0)
(1.48519 -5.82354e-09 0)
(1.48519 -5.71273e-09 0)
(1.48519 -5.61697e-09 0)
(1.48519 -5.52506e-09 0)
(1.48519 -5.4328e-09 0)
(1.48519 -5.34581e-09 0)
(1.48519 -5.24374e-09 0)
(1.48519 -5.15106e-09 0)
(1.48519 -5.07364e-09 0)
(1.48519 -4.98349e-09 0)
(1.48519 -4.88324e-09 0)
(1.48519 -4.80653e-09 0)
(1.48519 -4.72856e-09 0)
(1.48519 -4.64806e-09 0)
(1.48519 -4.57533e-09 0)
(1.48519 -4.51567e-09 0)
(1.48519 -4.44598e-09 0)
(1.48519 -4.35885e-09 0)
(1.48519 -4.32058e-09 0)
(1.48519 -4.23392e-09 0)
(1.48519 -4.17141e-09 0)
(1.48519 -4.14634e-09 0)
(1.48519 -4.03757e-09 0)
(1.48519 -4.00669e-09 0)
(1.48519 -3.93267e-09 0)
(1.48519 -3.89817e-09 0)
(1.48519 -3.80483e-09 0)
(1.48519 -3.7489e-09 0)
(1.48519 -3.6848e-09 0)
(1.48519 -3.59513e-09 0)
(1.48519 -3.57985e-09 0)
(1.48519 -3.50861e-09 0)
(1.48519 -3.46267e-09 0)
(1.48519 -3.41765e-09 0)
(1.48519 -3.35614e-09 0)
(1.48519 -3.31328e-09 0)
(1.48519 -3.26116e-09 0)
(1.48519 -3.20797e-09 0)
(1.48519 -3.16633e-09 0)
(1.48519 -3.12415e-09 0)
(1.48519 -3.09292e-09 0)
(1.48519 -3.02289e-09 0)
(1.48519 -3.00246e-09 0)
(1.48519 -2.96292e-09 0)
(1.48519 -2.91114e-09 0)
(1.48519 -2.88052e-09 0)
(1.48519 -2.83435e-09 0)
(1.48519 -2.80871e-09 0)
(1.48519 -2.75459e-09 0)
(1.48519 -2.72969e-09 0)
(1.48519 -2.66916e-09 0)
(1.48519 -2.67509e-09 0)
(1.48519 -2.60834e-09 0)
(1.48519 -2.5671e-09 0)
(1.48519 -2.51137e-09 0)
(1.48519 -2.49424e-09 0)
(1.48519 -2.43771e-09 0)
(1.48519 -2.41179e-09 0)
(1.48519 -2.37061e-09 0)
(1.48519 -2.29718e-09 0)
(1.48519 -2.27519e-09 0)
(1.48519 -2.16806e-09 0)
(1.48519 -2.12832e-09 0)
(1.48519 -1.9473e-09 0)
(1.48519 -1.87336e-09 0)
(1.48519 -1.66407e-09 0)
(1.48519 -1.33617e-09 0)
(1.48519 -9.98059e-10 0)
(1.48519 -1.51846e-10 0)
(1.00001 -0.0002737 0)
(1.00006 -0.0008231 0)
(1.00018 -0.00137475 0)
(1.00037 -0.00192775 0)
(1.00061 -0.00248128 0)