/*--------------------------------*- C++ -*----------------------------------*\
  =========                 |
  \\      /  F ield         | OpenFOAM: The Open Source CFD Toolbox
   \\    /   O peration     | Website:  https://openfoam.org
    \\  /    A nd           | Version:  7
     \\/     M anipulation  |
\*---------------------------------------------------------------------------*/
FoamFile
{
    version     2.0;
    format      ascii;
    class       volScalarField;
    location    "5";
    object      p;
}
// * * * * * * * * * * * * * * * * * * * * * * * * * * * * * * * * * * * * * //

dimensions      [0 2 -2 0 0 0 0];

internalField   nonuniform List<scalar> 
500
(
3.76706
3.76707
3.76707
3.76706
3.82363
3.82363
3.82363
3.82363
3.8408
3.84062
3.84062
3.8408
3.88198
3.88065
3.88065
3.88198
3.95971
3.95817
3.95817
3.95971
3.3633
3.36329
3.36329
3.3633
3.4168
3.41674
3.41674
3.4168
3.40822
3.40816
3.40816
3.40822
3.4223
3.42225
3.42225
3.4223
3.41895
3.41874
3.41874
3.41895
3.25813
3.25815
3.25815
3.25813
3.29796
3.29809
3.29809
3.29796
3.28933
3.28958
3.28958
3.28933
3.29862
3.29887
3.29887
3.29862
3.29357
3.29366
3.29366
3.29357
2.92486
2.92485
2.92485
2.92486
2.96503
2.965
2.965
2.96503
2.95582
2.95578
2.95578
2.95582
2.96586
2.96583
2.96583
2.96586
2.96035
2.9603
2.9603
2.96035
2.77322
2.77323
2.77323
2.77322
2.80182
2.8019
2.8019
2.80182
2.79366
2.79382
2.79382
2.79366
2.80073
2.8009
2.8009
2.80073
2.79552
2.79566
2.79566
2.79552
2.54521
2.54521
2.54521
2.54521
2.5735
2.5735
2.5735
2.5735
2.56684
2.56681
2.56681
2.56684
2.57508
2.57502
2.57502
2.57508
2.57037
2.57035
2.57035
2.57037
2.38138
2.38138
2.38138
2.38138
2.40411
2.40414
2.40414
2.40411
2.39809
2.39814
2.39814
2.39809
2.40483
2.40489
2.40489
2.40484
2.4006
2.40075
2.40075
2.4006
2.20634
2.20634
2.20634
2.20634
2.22774
2.22775
2.22775
2.22774
2.22268
2.22268
2.22268
2.22268
2.22954
2.22952
2.22952
2.22954
2.22572
2.22574
2.22574
2.22572
2.05002
2.05003
2.05003
2.05002
2.06874
2.06876
2.06876
2.06874
2.06416
2.06417
2.06417
2.06416
2.07019
2.0702
2.0702
2.07019
2.06671
2.06678
2.06678
2.06671
1.89791
1.89792
1.89792
1.89791
1.91522
1.91523
1.91523
1.91522
1.91115
1.91116
1.91116
1.91115
1.91687
1.91686
1.91686
1.91687
1.91369
1.91373
1.91373
1.91369
1.75332
1.75332
1.75332
1.75332
1.76899
1.76899
1.76899
1.76899
1.76531
1.76531
1.76531
1.76531
1.77052
1.77051
1.77051
1.77052
1.76761
1.76766
1.76766
1.76761
1.61335
1.61336
1.61336
1.61335
1.62792
1.62792
1.62792
1.62792
1.62455
1.62455
1.62455
1.62455
1.62942
1.62941
1.62941
1.62942
1.62673
1.62677
1.62677
1.62673
1.47825
1.47825
1.47825
1.47825
1.49157
1.49157
1.49157
1.49157
1.48851
1.48851
1.48851
1.48851
1.49296
1.49295
1.49295
1.49296
1.4905
1.49054
1.49054
1.4905
1.34645
1.34645
1.34645
1.34645
1.35897
1.35897
1.35897
1.35897
1.35612
1.35612
1.35612
1.35612
1.36029
1.36028
1.36028
1.36029
1.358
1.35804
1.35804
1.358
1.21836
1.21836
1.21836
1.21836
1.22984
1.22985
1.22985
1.22984
1.22723
1.22723
1.22723
1.22723
1.23105
1.23104
1.23104
1.23105
1.22895
1.22899
1.22899
1.22895
1.0926
1.0926
1.0926
1.0926
1.1035
1.1035
1.1035
1.1035
1.10104
1.10104
1.10104
1.10104
1.10465
1.10464
1.10464
1.10465
1.10268
1.10271
1.10271
1.10268
0.969843
0.969843
0.969843
0.969843
0.979838
0.979841
0.979841
0.979838
0.977572
0.977569
0.977569
0.977572
0.980873
0.980863
0.980863
0.980873
0.979064
0.979094
0.979094
0.979064
0.848747
0.848747
0.848747
0.848747
0.858323
0.858325
0.858325
0.858323
0.856177
0.856174
0.856174
0.856177
0.859312
0.859302
0.859302
0.859312
0.857606
0.857633
0.857633
0.857606
0.730176
0.730176
0.730176
0.730176
0.738933
0.738935
0.738935
0.738933
0.736942
0.73694
0.73694
0.736942
0.73981
0.739801
0.739801
0.73981
0.738242
0.738268
0.738268
0.738242
0.612815
0.612816
0.612816
0.612815
0.621282
0.621284
0.621284
0.621282
0.619394
0.619391
0.619391
0.619394
0.622135
0.622126
0.622126
0.622135
0.620642
0.620667
0.620667
0.620642
0.497598
0.497598
0.497598
0.497598
0.505307
0.505308
0.505308
0.505307
0.50354
0.503537
0.503537
0.50354
0.506048
0.506038
0.506038
0.506048
0.504683
0.504705
0.504705
0.504683
0.383349
0.383349
0.383349
0.383349
0.390867
0.390869
0.390869
0.390867
0.389206
0.389204
0.389204
0.389206
0.391604
0.391596
0.391596
0.391604
0.390292
0.390315
0.390315
0.390292
0.270793
0.270793
0.270793
0.270793
0.277589
0.27759
0.27759
0.277589
0.276023
0.27602
0.27602
0.276023
0.278209
0.278198
0.278198
0.278209
0.277043
0.277059
0.277059
0.277043
0.159435
0.159435
0.159435
0.159435
0.165959
0.165961
0.165961
0.165959
0.164626
0.164626
0.164626
0.164626
0.166552
0.166548
0.166548
0.166552
0.165512
0.165537
0.165537
0.165512
0.0493567
0.049357
0.049357
0.0493567
0.0544887
0.0544896
0.0544896
0.0544887
0.0535052
0.0535025
0.0535025
0.0535052
0.0548471
0.0548396
0.0548396
0.0548471
0.0541285
0.0541334
0.0541334
0.0541285
)
;

boundaryField
{
    inlet
    {
        type            zeroGradient;
    }
    outlet
    {
        type            fixedValue;
        value           uniform 0;
    }
    wall
    {
        type            zeroGradient;
    }
    back
    {
        type            wedge;
    }
    front
    {
        type            wedge;
    }
    axis
    {
        type            empty;
    }
}


// ************************************************************************* //
