/*--------------------------------*- C++ -*----------------------------------*\
  =========                 |
  \\      /  F ield         | OpenFOAM: The Open Source CFD Toolbox
   \\    /   O peration     | Website:  https://openfoam.org
    \\  /    A nd           | Version:  7
     \\/     M anipulation  |
\*---------------------------------------------------------------------------*/
FoamFile
{
    version     2.0;
    format      ascii;
    class       surfaceScalarField;
    location    "5";
    object      phi;
}
// * * * * * * * * * * * * * * * * * * * * * * * * * * * * * * * * * * * * * //

dimensions      [0 3 -1 0 0 0 0];

internalField   nonuniform List<scalar> 
1255
(
2.74337e-05
-1.75394e-05
0.000290647
-8.53256e-14
-1.7784e-05
0.000290556
-2.74337e-05
-1.7784e-05
0.000290556
-1.75394e-05
0.000290647
8.15465e-05
-7.36806e-05
0.000876447
7.0463e-13
-7.53585e-05
0.000875136
-8.15465e-05
-7.53585e-05
0.000875136
-7.36806e-05
0.000876447
0.000122486
-0.000194753
0.00147448
-2.38232e-11
-0.000198315
0.00147213
-0.000122486
-0.000198315
0.00147213
-0.000194753
0.00147448
0.000223943
-0.000281752
0.00203144
1.03711e-11
-0.000285972
0.00202897
-0.000223943
-0.000285972
0.00202897
-0.000281752
0.00203144
0.000128772
0.00205277
7.64343e-11
0.00205085
-0.000128772
0.00205085
0.00205277
3.02742e-05
-1.86659e-05
0.000339694
1.08074e-13
-1.89325e-05
0.000339763
-3.02742e-05
-1.89325e-05
0.000339763
-1.86659e-05
0.000339694
9.20515e-05
-7.38575e-05
0.00102293
-7.976e-13
-7.57547e-05
0.00102401
-9.20515e-05
-7.57547e-05
0.00102401
-7.38575e-05
0.00102293
0.000136554
-0.000172782
0.00170689
6.13368e-11
-0.000176235
0.00170917
-0.000136553
-0.000176235
0.00170917
-0.000172782
0.00170689
0.000212698
-0.000202376
0.00227013
-1.14239e-10
-0.000206966
0.0022724
-0.000212698
-0.000206966
0.0022724
-0.000202376
0.00227013
9.76857e-05
0.00194029
-2.81521e-10
0.00194156
-9.76862e-05
0.00194156
0.00194029
2.29809e-05
-1.44953e-05
0.000377502
2.77988e-13
-1.47045e-05
0.000377448
-2.29809e-05
-1.47045e-05
0.000377448
-1.44953e-05
0.000377502
6.9663e-05
-5.83785e-05
0.00113972
-3.06343e-12
-5.98788e-05
0.00113885
-6.9663e-05
-5.98788e-05
0.00113885
-5.83785e-05
0.00113972
0.000103219
-0.000131794
0.00188903
-1.07786e-10
-0.000134439
0.00188695
-0.000103219
-0.000134439
0.00188695
-0.000131794
0.00188903
0.00015302
-0.000138809
0.00243534
1.91958e-10
-0.000142014
0.00243299
-0.00015302
-0.000142014
0.00243299
-0.000138809
0.00243534
5.31227e-05
0.00185414
5.5822e-10
0.00185267
-5.31216e-05
0.00185267
0.00185414
2.29506e-05
-1.39062e-05
0.000414468
-8.45884e-13
-1.41029e-05
0.000414502
-2.29506e-05
-1.41029e-05
0.000414502
-1.39062e-05
0.000414468
6.78621e-05
-5.26499e-05
0.00124605
9.87788e-12
-5.40153e-05
0.00124662
-6.78621e-05
-5.40153e-05
0.00124662
-5.26499e-05
0.00124605
9.62409e-05
-0.000109208
0.00203897
1.69592e-10
-0.000111432
0.0020406
-9.62405e-05
-0.000111432
0.0020406
-0.000109208
0.00203897
0.000127931
-0.000100839
0.00255082
-4.27274e-10
-0.000103283
0.00255278
-0.000127932
-0.000103283
0.00255278
-0.000100839
0.00255082
3.36341e-05
0.00178192
-1.0993e-09
0.00178303
-3.36363e-05
0.00178303
0.00178192
1.66662e-05
-1.02197e-05
0.000441552
2.46485e-12
-1.03654e-05
0.000441533
-1.66662e-05
-1.03654e-05
0.000441533
-1.02197e-05
0.000441552
4.88615e-05
-3.94188e-05
0.00132588
-4.54328e-11
-4.0441e-05
0.00132556
-4.88615e-05
-4.0441e-05
0.00132556
-3.94188e-05
0.00132588
6.88133e-05
-8.115e-05
0.00215283
-2.75995e-10
-8.27804e-05
0.00215176
-6.88139e-05
-8.27804e-05
0.00215176
-8.11501e-05
0.00215283
8.79125e-05
-6.88644e-05
0.00263001
7.98788e-10
-7.05116e-05
0.00262842
-8.79109e-05
-7.05117e-05
0.00262842
-6.88645e-05
0.00263001
1.25998e-05
0.00172621
2.60014e-09
0.00172511
-1.25947e-05
0.00172511
0.00172621
1.60272e-05
-9.56535e-06
0.000467249
-4.66745e-12
-9.69877e-06
0.000467259
-1.60273e-05
-9.69877e-06
0.000467259
-9.56536e-06
0.000467249
4.57413e-05
-3.53896e-05
0.00139773
1.11105e-10
-3.63007e-05
0.0013979
-4.57411e-05
-3.63007e-05
0.0013979
-3.53896e-05
0.00139773
6.30435e-05
-6.79002e-05
0.00224712
2.73731e-10
-6.92551e-05
0.00224776
-6.30429e-05
-6.92551e-05
0.00224776
-6.79001e-05
0.00224712
7.41391e-05
-5.12573e-05
0.00268479
-1.64125e-09
-5.25275e-05
0.00268583
-7.41424e-05
-5.25274e-05
0.00268583
-5.12571e-05
0.00268479
8.85644e-06
0.00168067
-4.72433e-09
0.00168144
-8.86569e-06
0.00168144
0.00168067
1.30236e-05
-7.78369e-06
0.000488179
2.78995e-12
-7.89258e-06
0.000488175
-1.30236e-05
-7.89258e-06
0.000488175
-7.78369e-06
0.000488179
3.68196e-05
-2.88048e-05
0.00145644
-2.77156e-10
-2.95477e-05
0.00145638
-3.68201e-05
-2.95477e-05
0.00145638
-2.88048e-05
0.00145644
4.97678e-05
-5.38173e-05
0.00232314
-2.29029e-10
-5.48919e-05
0.00232287
-4.97682e-05
-5.4892e-05
0.00232287
-5.38176e-05
0.00232314
5.41913e-05
-3.74208e-05
0.00272404
2.51556e-09
-3.83638e-05
0.00272349
-5.41861e-05
-3.83642e-05
0.00272349
-3.74219e-05
0.00272404
-2.80238e-07
0.00164337
1.87509e-09
0.0016428
2.83552e-07
0.0016428
0.00164337
1.20659e-05
-7.11628e-06
0.000507454
4.04738e-12
-7.21465e-06
0.000507456
-1.20659e-05
-7.21465e-06
0.000507456
-7.11628e-06
0.000507454
3.35067e-05
-2.57361e-05
0.00150903
1.32609e-10
-2.63958e-05
0.00150906
-3.35064e-05
-2.63957e-05
0.00150906
-2.5736e-05
0.00150903
4.44028e-05
-4.57637e-05
0.00238742
-3.10299e-09
-4.66623e-05
0.00238754
-4.4409e-05
-4.66623e-05
0.00238754
-4.57638e-05
0.00238742
4.54809e-05
-2.89039e-05
0.00275172
-1.27592e-08
-2.96283e-05
0.00275195
-4.55071e-05
-2.96277e-05
0.00275195
-2.89024e-05
0.00275172
-2.55509e-08
0.00161295
-1.10703e-07
0.00161326
-1.95485e-07
0.00161326
0.00161295
1.05818e-05
-6.21857e-06
0.000524343
-3.10398e-12
-6.30441e-06
0.000524342
-1.05818e-05
-6.30441e-06
0.000524342
-6.21857e-06
0.000524343
2.91265e-05
-2.22475e-05
0.00155471
4.03078e-10
-2.28181e-05
0.0015547
-2.91257e-05
-2.28181e-05
0.0015547
-2.22475e-05
0.00155471
3.77518e-05
-3.82055e-05
0.00244146
-5.40842e-10
-3.89567e-05
0.00244143
-3.7753e-05
-3.89566e-05
0.00244143
-3.82051e-05
0.00244146
3.59682e-05
-2.21836e-05
0.00277178
-6.76621e-09
-2.27546e-05
0.00277172
-3.59822e-05
-2.2754e-05
0.00277172
-2.21818e-05
0.00277178
-2.90446e-06
0.0015877
-3.26874e-08
0.00158763
2.83963e-06
0.00158763
0.0015877
9.716e-06
-5.66916e-06
0.000539805
-8.32988e-12
-5.74696e-06
0.000539805
-9.71601e-06
-5.74696e-06
0.000539805
-5.66917e-06
0.000539805
2.6425e-05
-1.99292e-05
0.00159582
2.73117e-10
-2.04392e-05
0.00159582
-2.64244e-05
-2.04392e-05
0.00159582
-1.99292e-05
0.00159582
3.34384e-05
-3.29395e-05
0.00248799
5.80109e-10
-3.35818e-05
0.00248801
-3.34373e-05
-3.35817e-05
0.00248801
-3.29393e-05
0.00248799
3.00973e-05
-1.758e-05
0.00278625
-2.73301e-09
-1.80344e-05
0.00278628
-3.01029e-05
-1.80342e-05
0.00278628
-1.75793e-05
0.00278625
-3.14623e-06
0.0015664
-9.85332e-09
0.00156646
3.12694e-06
0.00156646
0.0015664
8.7839e-06
-5.10274e-06
0.000553762
-6.07259e-12
-5.17256e-06
0.000553762
-8.78391e-06
-5.17256e-06
0.000553762
-5.10274e-06
0.000553762
2.3695e-05
-1.77006e-05
0.0016325
1.1065e-10
-1.81532e-05
0.0016325
-2.36947e-05
-1.81532e-05
0.0016325
-1.77006e-05
0.0016325
2.93365e-05
-2.83359e-05
0.00252808
6.39413e-10
-2.88873e-05
0.00252808
-2.93353e-05
-2.88873e-05
0.00252808
-2.83358e-05
0.00252808
2.49972e-05
-1.39556e-05
0.00279672
-1.12801e-09
-1.43238e-05
0.00279671
-2.49995e-05
-1.43237e-05
0.00279671
-1.39554e-05
0.00279672
-3.831e-06
0.0015483
-3.55714e-09
0.00154831
3.82401e-06
0.00154831
0.0015483
8.14193e-06
-4.70575e-06
0.000566673
-2.75054e-12
-4.7699e-06
0.000566674
-8.14194e-06
-4.7699e-06
0.000566674
-4.70575e-06
0.000566673
2.17675e-05
-1.60588e-05
0.00166596
2.53156e-11
-1.64691e-05
0.00166596
-2.17675e-05
-1.64691e-05
0.00166596
-1.60588e-05
0.00166596
2.62646e-05
-2.49036e-05
0.00256326
4.60728e-10
-2.53863e-05
0.00256326
-2.62637e-05
-2.53863e-05
0.00256326
-2.49036e-05
0.00256326
2.13541e-05
-1.13701e-05
0.00280435
-4.13389e-10
-1.16743e-05
0.00280435
-2.1355e-05
-1.16742e-05
0.00280435
-1.137e-05
0.00280435
-3.99759e-06
0.00153261
-1.33767e-09
0.00153264
3.99496e-06
0.00153264
0.00153261
7.43439e-06
-4.27957e-06
0.000578446
-8.49146e-13
-4.33776e-06
0.000578446
-7.43439e-06
-4.33776e-06
0.000578446
-4.27957e-06
0.000578446
1.97318e-05
-1.44196e-05
0.00169614
-6.26473e-12
-1.47879e-05
0.00169615
-1.97318e-05
-1.47879e-05
0.00169615
-1.44196e-05
0.00169614
2.33163e-05
-2.17858e-05
0.002594
2.84265e-10
-2.22071e-05
0.002594
-2.33158e-05
-2.22071e-05
0.002594
-2.17858e-05
0.002594
1.81866e-05
-9.24642e-06
0.00280984
-1.23818e-10
-9.49841e-06
0.00280983
-1.81869e-05
-9.4984e-06
0.00280983
-9.24638e-06
0.00280984
-4.12524e-06
0.00151901
-5.10934e-10
0.00151901
4.12423e-06
0.00151901
0.00151901
6.97266e-06
-3.99714e-06
0.000589469
-5.05053e-14
-4.05134e-06
0.00058947
-6.97266e-06
-4.05134e-06
0.00058947
-3.99714e-06
0.000589469
1.83728e-05
-1.32601e-05
0.00172406
-1.24985e-11
-1.35985e-05
0.00172407
-1.83728e-05
-1.35985e-05
0.00172407
-1.32601e-05
0.00172406
2.11593e-05
-1.95078e-05
0.00262144
1.60197e-10
-1.9884e-05
0.00262144
-2.11589e-05
-1.9884e-05
0.00262144
-1.95078e-05
0.00262144
1.5935e-05
-7.75321e-06
0.00281385
-1.54507e-11
-7.96759e-06
0.00281385
-1.5935e-05
-7.96759e-06
0.00281385
-7.7532e-06
0.00281385
-4.06199e-06
0.00150696
-1.95053e-10
0.00150698
4.06161e-06
0.00150698
0.00150696
6.38767e-06
-3.64808e-06
0.000599555
1.6065e-13
-3.69741e-06
0.000599555
-6.38767e-06
-3.69741e-06
0.000599555
-3.64808e-06
0.000599555
1.67182e-05
-1.1965e-05
0.00174936
-1.06329e-11
-1.22704e-05
0.00174936
-1.67182e-05
-1.22704e-05
0.00174936
-1.1965e-05
0.00174936
1.88963e-05
-1.72504e-05
0.00264566
8.525e-11
-1.75826e-05
0.00264565
-1.88961e-05
-1.75826e-05
0.00264565
-1.72504e-05
0.00264566
1.38072e-05
-6.42737e-06
0.00281669
1.68468e-11
-6.60861e-06
0.00281668
-1.38072e-05
-6.60861e-06
0.00281668
-6.42737e-06
0.00281669
-4.01782e-06
0.00149636
-6.9059e-11
0.00149636
4.01768e-06
0.00149636
0.00149636
6.05377e-06
-3.44622e-06
0.000609101
1.74208e-13
-3.49272e-06
0.000609101
-6.05377e-06
-3.49272e-06
0.000609101
-3.44622e-06
0.000609101
1.57557e-05
-1.11413e-05
0.00177304
-7.27037e-12
-1.14255e-05
0.00177304
-1.57558e-05
-1.14255e-05
0.00177304
-1.11413e-05
0.00177304
1.73702e-05
-1.57012e-05
0.0026676
4.28491e-11
-1.60029e-05
0.0026676
-1.73701e-05
-1.60029e-05
0.0026676
-1.57012e-05
0.0026676
1.23645e-05
-5.5323e-06
0.00281874
2.11179e-11
-5.69039e-06
0.00281874
-1.23644e-05
-5.69039e-06
0.00281874
-5.5323e-06
0.00281874
-3.86412e-06
0.00148679
-2.03958e-11
0.0014868
3.86408e-06
0.0014868
0.00148679
5.54498e-06
-3.14387e-06
0.000617832
1.37263e-13
-3.18618e-06
0.000617832
-5.54498e-06
-3.18618e-06
0.000617832
-3.14387e-06
0.000617832
1.43285e-05
-1.0062e-05
0.00179451
-4.41725e-12
-1.03187e-05
0.00179451
-1.43285e-05
-1.03187e-05
0.00179451
-1.0062e-05
0.00179451
1.55496e-05
-1.39749e-05
0.00268708
2.05941e-11
-1.42432e-05
0.00268707
-1.55495e-05
-1.42432e-05
0.00268707
-1.39749e-05
0.00268708
1.08532e-05
-4.6574e-06
0.00282015
1.67981e-11
-4.7932e-06
0.00282014
-1.08531e-05
-4.7932e-06
0.00282014
-4.6574e-06
0.00282015
-3.74265e-06
0.00147827
-2.69846e-12
0.00147827
3.74265e-06
0.00147827
0.00147827
5.30656e-06
-3.00325e-06
0.000626182
7.83372e-14
-3.04362e-06
0.000626183
-5.30656e-06
-3.04362e-06
0.000626183
-3.00325e-06
0.000626182
1.36692e-05
-9.49069e-06
0.00181486
-2.52066e-12
-9.73274e-06
0.00181486
-1.36692e-05
-9.73274e-06
0.00181486
-9.49069e-06
0.00181486
1.44845e-05
-1.29125e-05
0.00270498
9.25045e-12
-1.31599e-05
0.00270498
-1.44845e-05
-1.31599e-05
0.00270498
-1.29125e-05
0.00270498
9.89064e-06
-4.09975e-06
0.00282109
1.1212e-11
-4.22072e-06
0.00282109
-9.89062e-06
-4.22072e-06
0.00282109
-4.09975e-06
0.00282109
-3.57901e-06
0.00147046
2.36108e-12
0.00147047
3.57901e-06
0.00147047
0.00147046
4.84713e-06
-2.7287e-06
0.000633795
5.40017e-14
-2.76526e-06
0.000633795
-4.84713e-06
-2.76526e-06
0.000633795
-2.7287e-06
0.000633795
1.23706e-05
-8.5422e-06
0.00183323
-1.34132e-12
-8.76013e-06
0.00183323
-1.23706e-05
-8.76013e-06
0.00183323
-8.5422e-06
0.00183323
1.29465e-05
-1.15197e-05
0.00272091
3.89051e-12
-1.17403e-05
0.00272091
-1.29465e-05
-1.17403e-05
0.00272091
-1.15197e-05
0.00272091
8.76996e-06
-3.49475e-06
0.00282172
6.79686e-12
-3.59993e-06
0.00282172
-8.76995e-06
-3.59993e-06
0.00282172
-3.49475e-06
0.00282172
-3.40703e-06
0.00146346
3.03667e-12
0.00146346
3.40703e-06
0.00146346
0.00146346
4.68411e-06
-2.63921e-06
0.000641154
2.4234e-14
-2.67459e-06
0.000641154
-4.68411e-06
-2.67459e-06
0.000641154
-2.63921e-06
0.000641154
1.19707e-05
-8.18063e-06
0.00185092
-6.82704e-13
-8.38926e-06
0.00185091
-1.19707e-05
-8.38926e-06
0.00185091
-8.18064e-06
0.00185092
1.22465e-05
-1.08096e-05
0.00273579
1.43978e-12
-1.10163e-05
0.00273578
-1.22465e-05
-1.10163e-05
0.00273578
-1.08096e-05
0.00273579
8.0977e-06
-3.1345e-06
0.00282204
3.83761e-12
-3.22989e-06
0.00282203
-8.0977e-06
-3.22989e-06
0.00282203
-3.1345e-06
0.00282204
-3.28737e-06
0.00145694
2.40051e-12
0.00145694
3.28737e-06
0.00145694
0.00145694
4.25813e-06
-2.37882e-06
0.000647822
1.55346e-14
-2.41054e-06
0.000647822
-4.25813e-06
-2.41054e-06
0.000647822
-2.37882e-06
0.000647822
1.07243e-05
-7.29588e-06
0.00186671
-3.31727e-13
-7.48205e-06
0.00186671
-1.07243e-05
-7.48205e-06
0.00186671
-7.29588e-06
0.00186671
1.08713e-05
-9.6133e-06
0.00274897
4.29673e-13
-9.79695e-06
0.00274897
-1.08713e-05
-9.79695e-06
0.00274897
-9.6133e-06
0.00274897
7.24142e-06
-2.69312e-06
0.00282224
2.01522e-12
-2.77656e-06
0.00282225
-7.24141e-06
-2.77656e-06
0.00282225
-2.69312e-06
0.00282224
-3.04639e-06
0.0014511
1.59358e-12
0.00145112
3.04639e-06
0.00145112
0.0014511
4.15562e-06
-2.3364e-06
0.000654346
1.06334e-14
-2.36767e-06
0.000654346
-4.15562e-06
-2.36767e-06
0.000654346
-2.3364e-06
0.000654346
1.05764e-05
-7.13303e-06
0.00188224
-1.42091e-13
-7.31492e-06
0.00188223
-1.05764e-05
-7.31492e-06
0.00188223
-7.13303e-06
0.00188224
1.04913e-05
-9.20235e-06
0.00276154
4.76614e-14
-9.37827e-06
0.00276153
-1.04913e-05
-9.37827e-06
0.00276153
-9.20235e-06
0.00276154
6.7569e-06
-2.48394e-06
0.00282222
1.03668e-12
-2.56161e-06
0.00282219
-6.7569e-06
-2.56161e-06
0.00282219
-2.48394e-06
0.00282222
-3.03232e-06
0.00144556
9.61e-13
0.00144553
3.03232e-06
0.00144553
0.00144556
3.75066e-06
-2.07753e-06
0.000660201
4.97712e-15
-2.10511e-06
0.000660201
-3.75066e-06
-2.10511e-06
0.000660201
-2.07753e-06
0.000660201
9.31086e-06
-6.24425e-06
0.00189584
-6.22769e-14
-6.40359e-06
0.00189584
-9.31086e-06
-6.40359e-06
0.00189584
-6.24425e-06
0.00189584
9.16876e-06
-8.05888e-06
0.00277249
-6.03359e-14
-8.21227e-06
0.0027725
-9.16876e-06
-8.21227e-06
0.0027725
-8.05888e-06
0.00277249
6.07103e-06
-2.105e-06
0.00282218
4.66327e-13
-2.17167e-06
0.00282222
-6.07103e-06
-2.17167e-06
0.00282222
-2.105e-06
0.00282218
-2.61685e-06
0.00144067
5.44759e-13
0.00144074
2.61685e-06
0.00144074
0.00144067
3.67638e-06
-2.07924e-06
0.000665986
8.92463e-15
-2.10741e-06
0.000665985
-3.67637e-06
-2.10741e-06
0.000665985
-2.07924e-06
0.000665986
9.45113e-06
-6.30415e-06
0.00190966
-1.55055e-14
-6.46473e-06
0.00190965
-9.45113e-06
-6.46473e-06
0.00190965
-6.30415e-06
0.00190966
9.09488e-06
-7.98296e-06
0.00278331
-7.95377e-14
-8.13619e-06
0.00278327
-9.09488e-06
-8.13619e-06
0.00278327
-7.98296e-06
0.00278331
5.78467e-06
-2.19418e-06
0.0028222
2.34902e-13
-2.262e-06
0.00282213
-5.78467e-06
-2.262e-06
0.00282213
-2.19418e-06
0.0028222
-2.79222e-06
0.00143582
2.95549e-13
0.00143568
2.79222e-06
0.00143568
0.00143582
2.94215e-06
-1.72364e-06
5.06487e-17
-1.74768e-06
-2.94215e-06
-1.74768e-06
-1.72364e-06
8.05838e-06
-5.27427e-06
-2.19844e-15
-5.40825e-06
-8.05838e-06
-5.40825e-06
-5.27427e-06
7.55453e-06
-6.52548e-06
-5.63609e-14
-6.65104e-06
-7.55453e-06
-6.65104e-06
-6.52548e-06
4.92342e-06
-2.0506e-06
7.83216e-14
-2.10828e-06
-4.92342e-06
-2.10828e-06
-2.0506e-06
-1.5943e-06
1.28193e-13
1.5943e-06
)
;

boundaryField
{
    inlet
    {
        type            calculated;
        value           nonuniform List<scalar> 
20
(
-0.000245338
-0.000736015
-0.00122669
-0.00171737
-0.00220805
-0.000245338
-0.000736015
-0.00122669
-0.00171737
-0.00220805
-0.000245338
-0.000736015
-0.00122669
-0.00171737
-0.00220805
-0.000245338
-0.000736015
-0.00122669
-0.00171737
-0.00220805
)
;
    }
    outlet
    {
        type            calculated;
        value           nonuniform List<scalar> 
20
(
0.000670675
0.00192137
0.00279207
0.00282252
0.00143198
0.000670675
0.00192137
0.00279207
0.00282251
0.00143198
0.000670675
0.00192137
0.00279207
0.00282251
0.00143198
0.000670675
0.00192137
0.00279207
0.00282252
0.00143198
)
;
    }
    wall
    {
        type            calculated;
        value           uniform 0;
    }
    back
    {
        type            wedge;
        value           nonuniform List<scalar> 
125
(
-5.52033e-05
-0.000165837
-0.000249203
-0.000451012
-0.000255251
-6.06548e-05
-0.000183347
-0.000270042
-0.000421792
-0.000187578
-4.62936e-05
-0.000142569
-0.00021194
-0.000311223
-0.000105786
-4.60103e-05
-0.00013544
-0.000189629
-0.000251776
-6.22455e-05
-3.35303e-05
-9.94956e-05
-0.000140935
-0.00017939
-2.57588e-05
-3.21595e-05
-9.17665e-05
-0.000124824
-0.000145559
-1.45733e-05
-2.61699e-05
-7.45131e-05
-0.000100772
-0.000109839
1.57624e-07
-2.42243e-05
-6.74771e-05
-8.8657e-05
-9.00159e-05
1.5399e-06
-2.12519e-05
-5.87745e-05
-7.58336e-05
-7.20551e-05
5.97153e-06
-1.9509e-05
-5.32712e-05
-6.69646e-05
-5.99264e-05
6.87116e-06
-1.7638e-05
-4.77773e-05
-5.87907e-05
-4.98421e-05
7.97662e-06
-1.63478e-05
-4.38797e-05
-5.25929e-05
-4.25198e-05
8.31779e-06
-1.49272e-05
-3.97756e-05
-4.66957e-05
-3.62172e-05
8.47373e-06
-1.39993e-05
-3.70287e-05
-4.23481e-05
-3.16988e-05
8.35866e-06
-1.28249e-05
-3.3694e-05
-3.78289e-05
-2.74742e-05
8.19085e-06
-1.21538e-05
-3.1748e-05
-3.47497e-05
-2.45774e-05
7.90655e-06
-1.11326e-05
-2.88727e-05
-3.1119e-05
-2.15806e-05
7.59994e-06
-1.06532e-05
-2.75391e-05
-2.89676e-05
-1.96516e-05
7.29364e-06
-9.73112e-06
-2.49234e-05
-2.5901e-05
-1.74233e-05
6.90915e-06
-9.40332e-06
-2.41144e-05
-2.44889e-05
-1.60923e-05
6.66816e-06
-8.54823e-06
-2.16025e-05
-2.17376e-05
-1.43624e-05
6.19482e-06
-8.34236e-06
-2.13057e-05
-2.09882e-05
-1.34533e-05
6.09123e-06
-7.52896e-06
-1.87481e-05
-1.83062e-05
-1.19816e-05
5.4064e-06
-7.38224e-06
-1.90448e-05
-1.8242e-05
-1.15923e-05
5.44729e-06
-5.90695e-06
-1.62205e-05
-1.50584e-05
-9.72302e-06
3.37901e-06
)
;
    }
    front
    {
        type            wedge;
        value           nonuniform List<scalar> 
125
(
-5.52033e-05
-0.000165837
-0.000249203
-0.000451012
-0.00025525
-6.06548e-05
-0.000183347
-0.000270042
-0.000421793
-0.000187579
-4.62936e-05
-0.000142569
-0.00021194
-0.000311223
-0.000105785
-4.60103e-05
-0.00013544
-0.000189628
-0.000251777
-6.22476e-05
-3.35303e-05
-9.94957e-05
-0.000140935
-0.000179388
-2.57536e-05
-3.21595e-05
-9.17663e-05
-0.000124824
-0.000145563
-1.45819e-05
-2.61699e-05
-7.45136e-05
-0.000100772
-0.000109833
1.59938e-07
-2.42243e-05
-6.74769e-05
-8.8663e-05
-9.00439e-05
1.31856e-06
-2.12519e-05
-5.87738e-05
-7.58351e-05
-7.20704e-05
5.90951e-06
-1.9509e-05
-5.32706e-05
-6.69636e-05
-5.99324e-05
6.85272e-06
-1.7638e-05
-4.7777e-05
-5.87896e-05
-4.98445e-05
7.96995e-06
-1.63478e-05
-4.38797e-05
-5.2592e-05
-4.25208e-05
8.31527e-06
-1.49272e-05
-3.97756e-05
-4.66952e-05
-3.62175e-05
8.47277e-06
-1.39993e-05
-3.70287e-05
-4.23478e-05
-3.16989e-05
8.35829e-06
-1.28249e-05
-3.3694e-05
-3.78287e-05
-2.74741e-05
8.19072e-06
-1.21538e-05
-3.1748e-05
-3.47496e-05
-2.45774e-05
7.90651e-06
-1.11326e-05
-2.88727e-05
-3.11189e-05
-2.15806e-05
7.59994e-06
-1.06532e-05
-2.75391e-05
-2.89675e-05
-1.96516e-05
7.29364e-06
-9.73112e-06
-2.49234e-05
-2.5901e-05
-1.74233e-05
6.90916e-06
-9.40332e-06
-2.41144e-05
-2.44889e-05
-1.60923e-05
6.66816e-06
-8.54823e-06
-2.16025e-05
-2.17376e-05
-1.43624e-05
6.19482e-06
-8.34236e-06
-2.13057e-05
-2.09882e-05
-1.34533e-05
6.09123e-06
-7.52896e-06
-1.87481e-05
-1.83062e-05
-1.19816e-05
5.4064e-06
-7.38224e-06
-1.90448e-05
-1.8242e-05
-1.15923e-05
5.44729e-06
-5.90695e-06
-1.62205e-05
-1.50584e-05
-9.72302e-06
3.37901e-06
)
;
    }
    axis
    {
        type            empty;
        value           nonuniform 0();
    }
}


// ************************************************************************* //
