/*--------------------------------*- C++ -*----------------------------------*\
  =========                 |
  \\      /  F ield         | OpenFOAM: The Open Source CFD Toolbox
   \\    /   O peration     | Website:  https://openfoam.org
    \\  /    A nd           | Version:  7
     \\/     M anipulation  |
\*---------------------------------------------------------------------------*/
FoamFile
{
    version     2.0;
    format      ascii;
    class       volVectorField;
    location    "5";
    object      U;
}
// * * * * * * * * * * * * * * * * * * * * * * * * * * * * * * * * * * * * * //

dimensions      [0 1 -1 0 0 0 0];

internalField   nonuniform List<vector> 
500
(
(0.00278407 -0.00965169 1.03382)
(0.000930385 -0.0100164 1.03382)
(-0.000930385 -0.0100164 1.03382)
(-0.00278407 -0.00965169 1.03382)
(0.00838243 -0.0300085 1.03229)
(0.00278363 -0.0310987 1.03229)
(-0.00278363 -0.0310987 1.03229)
(-0.00838243 -0.0300085 1.03229)
(0.012617 -0.0463315 1.03655)
(0.00419066 -0.0479036 1.03656)
(-0.00419066 -0.0479036 1.03656)
(-0.012617 -0.0463315 1.03655)
(0.0229468 -0.0867402 1.03523)
(0.00777286 -0.0895032 1.03518)
(-0.00777286 -0.0895032 1.03518)
(-0.0229468 -0.0867402 1.03523)
(0.0130267 -0.0502414 0.896596)
(0.00459891 -0.0517385 0.896512)
(-0.00459891 -0.0517385 0.896512)
(-0.0130267 -0.0502414 0.896596)
(0.00305815 -0.0105073 1.33403)
(0.00102448 -0.0109079 1.33403)
(-0.00102448 -0.0109079 1.33403)
(-0.00305815 -0.0105073 1.33403)
(0.00923532 -0.0314303 1.34075)
(0.00310339 -0.0326408 1.34075)
(-0.00310339 -0.0326408 1.34075)
(-0.00923532 -0.0314303 1.34075)
(0.0135559 -0.0449373 1.35256)
(0.00458027 -0.0467226 1.35256)
(-0.00458026 -0.0467226 1.35256)
(-0.0135559 -0.0449373 1.35256)
(0.0211612 -0.0703967 1.31249)
(0.00714579 -0.0731654 1.3124)
(-0.0071458 -0.0731654 1.3124)
(-0.0211612 -0.0703967 1.31249)
(0.00942698 -0.0298296 0.943732)
(0.00326189 -0.0310252 0.943585)
(-0.00326192 -0.0310251 0.943585)
(-0.009427 -0.0298296 0.943732)
(0.00232932 -0.00803299 1.4363)
(0.000778748 -0.00833897 1.4363)
(-0.000778748 -0.00833897 1.4363)
(-0.00232932 -0.00803299 1.4363)
(0.00712371 -0.0246374 1.44553)
(0.00237125 -0.0255806 1.44553)
(-0.00237125 -0.0255806 1.44553)
(-0.00712371 -0.0246374 1.44553)
(0.0105258 -0.0357885 1.44274)
(0.00349823 -0.0371949 1.44274)
(-0.00349824 -0.0371949 1.44274)
(-0.0105258 -0.0357885 1.44274)
(0.0154848 -0.0520001 1.34638)
(0.00516228 -0.0540497 1.34633)
(-0.00516227 -0.0540497 1.34633)
(-0.0154848 -0.0520001 1.34638)
(0.00525015 -0.0165488 0.828466)
(0.00176702 -0.0172311 0.828406)
(-0.00176696 -0.0172311 0.828406)
(-0.00525009 -0.0165488 0.828466)
(0.00231913 -0.00797047 1.64021)
(0.000776748 -0.00827435 1.64021)
(-0.000776748 -0.00827435 1.64021)
(-0.00231913 -0.00797047 1.64021)
(0.00681438 -0.0231579 1.64623)
(0.00228893 -0.0240516 1.64624)
(-0.00228893 -0.0240516 1.64624)
(-0.00681438 -0.0231579 1.64623)
(0.00951338 -0.0312104 1.627)
(0.00322105 -0.0324641 1.627)
(-0.00322104 -0.0324641 1.627)
(-0.00951336 -0.0312104 1.627)
(0.0126247 -0.0411485 1.47742)
(0.00427874 -0.0428135 1.47739)
(-0.00427879 -0.0428135 1.47739)
(-0.0126248 -0.0411485 1.47742)
(0.00310019 -0.00843026 0.840126)
(0.00109269 -0.00883741 0.840076)
(-0.0010928 -0.0088374 0.840076)
(-0.00310029 -0.00843023 0.840126)
(0.00168773 -0.00581356 1.7391)
(0.000564546 -0.00603513 1.7391)
(-0.000564545 -0.00603513 1.7391)
(-0.00168773 -0.00581356 1.7391)
(0.00497519 -0.0170994 1.74303)
(0.00165988 -0.0177575 1.74303)
(-0.00165989 -0.0177575 1.74303)
(-0.00497519 -0.0170994 1.74303)
(0.00699924 -0.0236809 1.70441)
(0.00233 -0.0246159 1.7044)
(-0.00233003 -0.0246159 1.7044)
(-0.00699927 -0.0236809 1.70441)
(0.00891805 -0.0300393 1.5022)
(0.0029673 -0.0312275 1.50217)
(-0.00296722 -0.0312275 1.50217)
(-0.00891796 -0.0300393 1.5022)
(0.00126364 -0.00373916 0.781881)
(0.000401194 -0.00391998 0.781844)
(-0.000400931 -0.00392 0.781844)
(-0.00126338 -0.00373921 0.781881)
(0.00162068 -0.0055763 1.86013)
(0.000542602 -0.00578872 1.86013)
(-0.000542603 -0.00578872 1.86013)
(-0.00162068 -0.0055763 1.86013)
(0.00461337 -0.015765 1.85801)
(0.00154646 -0.0163702 1.85801)
(-0.00154645 -0.0163702 1.85801)
(-0.00461336 -0.015765 1.85801)
(0.00626383 -0.0207851 1.80143)
(0.00211506 -0.0216073 1.80142)
(-0.00211503 -0.0216073 1.80142)
(-0.0062638 -0.0207851 1.80143)
(0.00730953 -0.0239465 1.555)
(0.00248019 -0.0249076 1.55498)
(-0.00248035 -0.0249076 1.55498)
(-0.0073097 -0.0239464 1.555)
(0.000720056 -0.00108625 0.776471)
(0.0002713 -0.00118874 0.776441)
(-0.000271775 -0.0011887 0.776441)
(-0.00072049 -0.00108615 0.77647)
(0.00131805 -0.00453871 1.94906)
(0.00044106 -0.0047116 1.94906)
(-0.00044106 -0.0047116 1.94906)
(-0.00131805 -0.00453871 1.94906)
(0.00373646 -0.0128282 1.94106)
(0.00124886 -0.0133203 1.94106)
(-0.00124888 -0.0133203 1.94106)
(-0.00373648 -0.0128282 1.94106)
(0.00502496 -0.0169386 1.86463)
(0.00168249 -0.0176039 1.86462)
(-0.00168252 -0.0176039 1.86462)
(-0.00502498 -0.0169386 1.86463)
(0.00547487 -0.0184522 1.57506)
(0.0018306 -0.0191855 1.57503)
(-0.00183035 -0.0191855 1.57503)
(-0.0054746 -0.0184524 1.57506)
(-9.80672e-06 0.0002035 0.749243)
(-3.27608e-05 0.000178272 0.749217)
(3.29307e-05 0.000178165 0.749217)
(9.93296e-06 0.000203158 0.749242)
(0.00122064 -0.00420277 2.03052)
(0.00040857 -0.00436279 2.03052)
(-0.000408569 -0.00436279 2.03052)
(-0.00122064 -0.00420277 2.03052)
(0.00339038 -0.0116346 2.01622)
(0.00113478 -0.0120796 2.01622)
(-0.00113477 -0.0120796 2.01622)
(-0.00339037 -0.0116346 2.01622)
(0.00444624 -0.0149376 1.92211)
(0.00149555 -0.0155212 1.9221)
(-0.00149586 -0.0155212 1.9221)
(-0.00444654 -0.0149375 1.92211)
(0.00451962 -0.0150533 1.59589)
(0.00152649 -0.015649 1.59587)
(-0.00152777 -0.015649 1.59587)
(-0.00452099 -0.0150535 1.59589)
(-8.05517e-05 0.00101377 0.737693)
(-2.11292e-05 0.00101324 0.737678)
(9.8104e-06 0.0010139 0.737678)
(6.91714e-05 0.00101571 0.737693)
(0.00107072 -0.00368732 2.10628)
(0.000358346 -0.00382771 2.10628)
(-0.000358346 -0.00382771 2.10628)
(-0.00107072 -0.00368732 2.10628)
(0.00295151 -0.0101415 2.08451)
(0.000987212 -0.0105292 2.08451)
(-0.000987172 -0.0105292 2.08451)
(-0.00295147 -0.0101415 2.08451)
(0.00379814 -0.0128209 1.97079)
(0.00127477 -0.0133207 1.97078)
(-0.00127482 -0.0133206 1.97078)
(-0.0037982 -0.0128209 1.97079)
(0.00361104 -0.0121613 1.60939)
(0.00121323 -0.0126419 1.60937)
(-0.00121392 -0.0126418 1.60937)
(-0.00361177 -0.012161 1.60939)
(-0.000307483 0.00141236 0.724162)
(-0.000113843 0.00143513 0.724146)
(0.00011062 0.00143544 0.724146)
(0.000304352 0.00141332 0.724163)
(0.00098305 -0.00338569 2.16816)
(0.000329021 -0.00351456 2.16816)
(-0.000329021 -0.00351456 2.16816)
(-0.00098305 -0.00338569 2.16816)
(0.00267663 -0.00920325 2.14013)
(0.000895434 -0.00955456 2.14013)
(-0.000895407 -0.00955456 2.14013)
(-0.0026766 -0.00920326 2.14013)
(0.00335862 -0.0113502 2.0097)
(0.00112817 -0.0117911 2.0097)
(-0.00112812 -0.0117911 2.0097)
(-0.00335857 -0.0113502 2.0097)
(0.00300844 -0.0101358 1.61848)
(0.00101306 -0.0105344 1.61846)
(-0.00101333 -0.0105343 1.61846)
(-0.00300873 -0.0101357 1.61848)
(-0.000351563 0.00164732 0.71384)
(-0.000119663 0.00168028 0.713829)
(0.000118691 0.00168039 0.713829)
(0.000350635 0.00164765 0.71384)
(0.000888778 -0.0030613 2.23234)
(0.000297462 -0.00317781 2.23234)
(-0.000297463 -0.00317781 2.23234)
(-0.000888779 -0.0030613 2.23234)
(0.00240071 -0.00825956 2.19627)
(0.000803025 -0.00857462 2.19627)
(-0.000803014 -0.00857462 2.19627)
(-0.00240069 -0.00825956 2.19627)
(0.00294895 -0.00998403 2.04681)
(0.000990197 -0.010371 2.0468)
(-0.000990133 -0.010371 2.0468)
(-0.00294889 -0.00998404 2.04681)
(0.00250248 -0.00846178 1.62644)
(0.000842108 -0.00879416 1.62642)
(-0.000842222 -0.00879414 1.62642)
(-0.00250259 -0.00846172 1.62644)
(-0.000407511 0.00174618 0.705154)
(-0.000141061 0.00178604 0.705144)
(0.000140709 0.00178608 0.705144)
(0.000407176 0.00174629 0.705154)
(0.000823812 -0.0028377 2.28193)
(0.000275723 -0.00294568 2.28193)
(-0.000275723 -0.00294568 2.28193)
(-0.000823812 -0.0028377 2.28193)
(0.00220535 -0.00759154 2.23978)
(0.000737682 -0.00788085 2.23978)
(-0.000737679 -0.00788085 2.23978)
(-0.00220534 -0.00759154 2.23978)
(0.00263922 -0.00894564 2.075)
(0.000886292 -0.00929162 2.07499)
(-0.000886246 -0.00929162 2.07499)
(-0.00263918 -0.00894565 2.075)
(0.00213626 -0.00723542 1.63058)
(0.000719376 -0.00751901 1.63057)
(-0.000719418 -0.007519 1.63057)
(-0.0021363 -0.00723539 1.63058)
(-0.000424213 0.00178424 0.697321)
(-0.000145456 0.00182749 0.697313)
(0.000145323 0.00182751 0.697313)
(0.000424086 0.00178428 0.697321)
(0.00075224 -0.00259136 2.3376)
(0.000251765 -0.00268997 2.3376)
(-0.000251766 -0.00268997 2.3376)
(-0.00075224 -0.00259136 2.3376)
(0.00199928 -0.00688541 2.28721)
(0.00066872 -0.00714764 2.28721)
(-0.000668721 -0.00714764 2.28721)
(-0.00199928 -0.00688541 2.28721)
(0.00234368 -0.00795408 2.10418)
(0.000786907 -0.00826119 2.10418)
(-0.000786879 -0.00826119 2.10418)
(-0.00234365 -0.00795409 2.10418)
(0.00182014 -0.00617854 1.63535)
(0.000612906 -0.00642047 1.63534)
(-0.000612918 -0.00642047 1.63534)
(-0.00182015 -0.00617853 1.63535)
(-0.000431838 0.00176305 0.69098)
(-0.000148603 0.00180783 0.690973)
(0.000148553 0.00180783 0.690973)
(0.00043179 0.00176307 0.69098)
(0.000705509 -0.00243045 2.37789)
(0.000236128 -0.00252293 2.37789)
(-0.000236128 -0.00252293 2.37789)
(-0.000705509 -0.00243045 2.37789)
(0.00186151 -0.00641338 2.32179)
(0.000622645 -0.00665748 2.32179)
(-0.000622646 -0.00665748 2.32179)
(-0.00186151 -0.00641338 2.32179)
(0.0021261 -0.00722032 2.12509)
(0.000713949 -0.00749872 2.12508)
(-0.000713933 -0.00749872 2.12508)
(-0.00212608 -0.00722033 2.12509)
(0.00159387 -0.0054164 1.63694)
(0.00053708 -0.00562817 1.63693)
(-0.000537082 -0.00562817 1.63693)
(-0.00159387 -0.0054164 1.63694)
(-0.000425618 0.00172868 0.684941)
(-0.00014569 0.0017736 0.684935)
(0.00014567 0.0017736 0.684935)
(0.000425599 0.00172868 0.684941)
(0.000646335 -0.00222676 2.42747)
(0.000216321 -0.00231147 2.42747)
(-0.000216321 -0.00231147 2.42747)
(-0.000646335 -0.00222676 2.42747)
(0.001694 -0.00583833 2.36308)
(0.000566591 -0.00606044 2.36308)
(-0.000566592 -0.00606044 2.36308)
(-0.001694 -0.00583833 2.36308)
(0.00189937 -0.00645672 2.14894)
(0.000637701 -0.00670536 2.14894)
(-0.000637692 -0.00670537 2.14894)
(-0.00189936 -0.00645672 2.14894)
(0.00138171 -0.00470431 1.64003)
(0.000465537 -0.00488816 1.64003)
(-0.000465535 -0.00488816 1.64003)
(-0.00138171 -0.00470431 1.64003)
(-0.000416949 0.00166049 0.680105)
(-0.000143326 0.00170475 0.6801)
(0.000143319 0.00170475 0.6801)
(0.000416943 0.0016605 0.680105)
(0.000612535 -0.00211033 2.4601)
(0.000205012 -0.00219061 2.4601)
(-0.000205012 -0.00219061 2.4601)
(-0.000612535 -0.00211033 2.4601)
(0.00159638 -0.00550346 2.39051)
(0.000533952 -0.00571272 2.39051)
(-0.000533953 -0.00571272 2.39051)
(-0.00159638 -0.00550346 2.39051)
(0.00174521 -0.00593442 2.16454)
(0.00058606 -0.00616274 2.16454)
(-0.000586056 -0.00616274 2.16454)
(-0.00174521 -0.00593442 2.16454)
(0.00123657 -0.00421311 1.64022)
(0.000416936 -0.00437754 1.64021)
(-0.000416933 -0.00437754 1.64021)
(-0.00123656 -0.00421311 1.64022)
(-0.000402252 0.00160382 0.675281)
(-0.000137604 0.00164699 0.675276)
(0.000137602 0.00164699 0.675276)
(0.00040225 0.00160382 0.675281)
(0.000561071 -0.00193316 2.50529)
(0.000187784 -0.00200669 2.50529)
(-0.000187784 -0.00200669 2.50529)
(-0.000561071 -0.00193316 2.50529)
(0.00145187 -0.00500662 2.42746)
(0.000485599 -0.00519693 2.42746)
(-0.0004856 -0.00519693 2.42746)
(-0.00145187 -0.00500662 2.42746)
(0.00156289 -0.00531871 2.18474)
(0.000524736 -0.00552316 2.18473)
(-0.000524734 -0.00552316 2.18473)
(-0.00156289 -0.00531872 2.18474)
(0.00108591 -0.00370528 1.64243)
(0.000366087 -0.0038499 1.64243)
(-0.000366086 -0.0038499 1.64243)
(-0.00108591 -0.00370528 1.64243)
(-0.000386617 0.00151881 0.671473)
(-0.000132812 0.00156037 0.671469)
(0.000132812 0.00156037 0.671469)
(0.000386617 0.00151881 0.671473)
(0.000536931 -0.00184997 2.53128)
(0.000179708 -0.00192034 2.53128)
(-0.000179708 -0.00192034 2.53128)
(-0.000536931 -0.00184997 2.53128)
(0.00138497 -0.00477702 2.44882)
(0.000463236 -0.00495852 2.44882)
(-0.000463236 -0.00495852 2.44882)
(-0.00138497 -0.00477702 2.44882)
(0.00145518 -0.00495273 2.19627)
(0.000488681 -0.00514299 2.19627)
(-0.00048868 -0.00514299 2.19627)
(-0.00145517 -0.00495273 2.19627)
(0.000989197 -0.00337783 1.64184)
(0.000333673 -0.0035095 1.64184)
(-0.000333672 -0.0035095 1.64184)
(-0.000989196 -0.00337783 1.64184)
(-0.000370887 0.00146089 0.667521)
(-0.000126904 0.00150107 0.667518)
(0.000126905 0.00150107 0.667518)
(0.000370887 0.00146089 0.667521)
(0.00049046 -0.00168997 2.57337)
(0.000164152 -0.00175424 2.57337)
(-0.000164152 -0.00175424 2.57337)
(-0.00049046 -0.00168997 2.57337)
(0.00125346 -0.00432426 2.48278)
(0.000419238 -0.00448852 2.48278)
(-0.000419238 -0.00448852 2.48278)
(-0.00125346 -0.00432426 2.48278)
(0.0013011 -0.0044309 2.21395)
(0.000436867 -0.004601 2.21395)
(-0.000436867 -0.004601 2.21395)
(-0.0013011 -0.0044309 2.21395)
(0.000877134 -0.0029969 1.64354)
(0.000295908 -0.00311378 1.64354)
(-0.000295907 -0.00311378 1.64354)
(-0.000877133 -0.0029969 1.64354)
(-0.000351318 0.0013707 0.664423)
(-0.000120542 0.00140877 0.66442)
(0.000120543 0.00140877 0.66442)
(0.000351319 0.0013707 0.664423)
(0.00047395 -0.00163305 2.59333)
(0.000158629 -0.00169516 2.59333)
(-0.000158629 -0.00169516 2.59333)
(-0.00047395 -0.00163305 2.59333)
(0.00121289 -0.00418519 2.49872)
(0.000405674 -0.00434411 2.49872)
(-0.000405674 -0.00434411 2.49872)
(-0.00121289 -0.00418519 2.49872)
(0.00123039 -0.00419095 2.22223)
(0.000413186 -0.00435176 2.22223)
(-0.000413186 -0.00435176 2.22223)
(-0.00123039 -0.00419095 2.22223)
(0.000810275 -0.00277353 1.64258)
(0.000273326 -0.00288154 1.64257)
(-0.000273326 -0.00288154 1.64257)
(-0.000810274 -0.00277353 1.64258)
(-0.000338997 0.00132059 0.661161)
(-0.000116198 0.00135749 0.661159)
(0.000116198 0.00135749 0.661159)
(0.000338997 0.00132059 0.661161)
(0.000430858 -0.00148467 2.63336)
(0.000144205 -0.00154113 2.63336)
(-0.000144205 -0.00154113 2.63336)
(-0.000430858 -0.00148467 2.63336)
(0.00108659 -0.00374978 2.53084)
(0.000363433 -0.00389214 2.53084)
(-0.000363433 -0.00389214 2.53084)
(-0.00108659 -0.00374978 2.53084)
(0.00109219 -0.00372037 2.23821)
(0.000366786 -0.00386305 2.2382)
(-0.000366786 -0.00386305 2.2382)
(-0.00109219 -0.00372037 2.23821)
(0.000723404 -0.00247137 1.64389)
(0.000244352 -0.00256771 1.64389)
(-0.000244351 -0.00256771 1.64389)
(-0.000723403 -0.00247137 1.64389)
(-0.000314855 0.00122942 0.658516)
(-0.000107639 0.00126381 0.658514)
(0.000107639 0.00126381 0.658514)
(0.000314855 0.00122942 0.658516)
(0.000420481 -0.00144887 2.64769)
(0.000140733 -0.00150397 2.64769)
(-0.000140733 -0.00150397 2.64769)
(-0.000420481 -0.00144887 2.64769)
(0.00107171 -0.00369949 2.54165)
(0.000358436 -0.00383991 2.54165)
(-0.000358436 -0.00383991 2.54165)
(-0.00107171 -0.00369949 2.54165)
(0.00105453 -0.0035955 2.24373)
(0.000354044 -0.00373335 2.24373)
(-0.000354044 -0.00373335 2.24373)
(-0.00105453 -0.0035955 2.24373)
(0.000677401 -0.00232804 1.64286)
(0.000228248 -0.0024186 1.64285)
(-0.000228248 -0.0024186 1.64285)
(-0.000677401 -0.00232804 1.64286)
(-0.000309688 0.00118516 0.655909)
(-0.000106824 0.00121883 0.655907)
(0.000106824 0.00121883 0.655907)
(0.000309688 0.00118516 0.655909)
(0.000379497 -0.00130767 2.68654)
(0.000127018 -0.0013574 2.68654)
(-0.000127018 -0.0013574 2.68654)
(-0.000379497 -0.00130767 2.68654)
(0.000943189 -0.00325561 2.57301)
(0.000315495 -0.00337914 2.57301)
(-0.000315495 -0.00337914 2.57301)
(-0.000943189 -0.00325561 2.57301)
(0.000920071 -0.00313139 2.25865)
(0.000309182 -0.00325141 2.25865)
(-0.000309182 -0.00325141 2.25865)
(-0.000920071 -0.00313139 2.25865)
(0.000604033 -0.00205464 1.64377)
(0.000204753 -0.00213472 1.64377)
(-0.000204753 -0.00213472 1.64377)
(-0.000604032 -0.00205464 1.64377)
(-0.000274513 0.00109342 0.653385)
(-9.25701e-05 0.00112385 0.653383)
(9.25702e-05 0.00112385 0.653383)
(0.000274513 0.00109342 0.653385)
(0.000371979 -0.00128122 2.69543)
(0.000124498 -0.00132997 2.69543)
(-0.000124498 -0.00132997 2.69543)
(-0.000371979 -0.00128122 2.69543)
(0.000957976 -0.00330871 2.57864)
(0.000320351 -0.00343424 2.57864)
(-0.000320351 -0.00343424 2.57864)
(-0.000957976 -0.00330871 2.57864)
(0.000915904 -0.00312565 2.26168)
(0.000307218 -0.00324557 2.26167)
(-0.000307218 -0.00324557 2.26167)
(-0.000915904 -0.00312565 2.26168)
(0.000583142 -0.00201793 1.64299)
(0.000195729 -0.00209637 1.64299)
(-0.000195729 -0.00209637 1.64299)
(-0.000583142 -0.00201793 1.64299)
(-0.000277091 0.00100603 0.651706)
(-9.75759e-05 0.00103579 0.651705)
(9.75759e-05 0.00103579 0.651705)
(0.000277091 0.00100603 0.651706)
(0.000297598 -0.0010243 2.73368)
(9.96181e-05 -0.00106331 2.73368)
(-9.96181e-05 -0.00106331 2.73368)
(-0.000297598 -0.0010243 2.73368)
(0.000815691 -0.00281014 2.61051)
(0.000272946 -0.00291701 2.61051)
(-0.000272946 -0.00291701 2.61051)
(-0.000815691 -0.00281014 2.61051)
(0.000756097 -0.00255474 2.2761)
(0.000254393 -0.00265355 2.2761)
(-0.000254393 -0.00265355 2.2761)
(-0.000756097 -0.00255474 2.2761)
(0.000489618 -0.00165725 1.64352)
(0.000165815 -0.00172177 1.64351)
(-0.000165815 -0.00172177 1.64351)
(-0.000489618 -0.00165725 1.64352)
(-0.000171211 0.000699715 0.64853)
(-5.65007e-05 0.000719365 0.64853)
(5.65007e-05 0.000719365 0.64853)
(0.000171211 0.000699715 0.64853)
)
;

boundaryField
{
    inlet
    {
        type            uniformFixedValue;
        uniformValue    constant (0 0 1);
        value           uniform (0 0 1);
    }
    outlet
    {
        type            pressureInletOutletVelocity;
        value           nonuniform List<vector> 
20
(
(0.000297598 -0.0010243 2.73368)
(0.000815691 -0.00281014 2.61051)
(0.000756097 -0.00255474 2.2761)
(0.000489618 -0.00165725 1.64352)
(-0.000171211 0.000699715 0.64853)
(9.96181e-05 -0.00106331 2.73368)
(0.000272946 -0.00291701 2.61051)
(0.000254393 -0.00265355 2.2761)
(0.000165815 -0.00172177 1.64351)
(-5.65007e-05 0.000719365 0.64853)
(-9.96181e-05 -0.00106331 2.73368)
(-0.000272946 -0.00291701 2.61051)
(-0.000254393 -0.00265355 2.2761)
(-0.000165815 -0.00172177 1.64351)
(5.65007e-05 0.000719365 0.64853)
(-0.000297598 -0.0010243 2.73368)
(-0.000815691 -0.00281014 2.61051)
(-0.000756097 -0.00255474 2.2761)
(-0.000489618 -0.00165725 1.64352)
(0.000171211 0.000699715 0.64853)
)
;
    }
    wall
    {
        type            fixedValue;
        value           uniform (0 0 0);
    }
    back
    {
        type            wedge;
    }
    front
    {
        type            wedge;
    }
    axis
    {
        type            empty;
    }
}


// ************************************************************************* //
