/*--------------------------------*- C++ -*----------------------------------*\
  =========                 |
  \\      /  F ield         | OpenFOAM: The Open Source CFD Toolbox
   \\    /   O peration     | Website:  https://openfoam.org
    \\  /    A nd           | Version:  7
     \\/     M anipulation  |
\*---------------------------------------------------------------------------*/
FoamFile
{
    version     2.0;
    format      ascii;
    class       volScalarField;
    location    "8";
    object      p;
}
// * * * * * * * * * * * * * * * * * * * * * * * * * * * * * * * * * * * * * //

dimensions      [0 2 -2 0 0 0 0];

internalField   nonuniform List<scalar> 
48000
(
1.90013
1.90016
1.90014
1.90005
1.8999
1.89969
1.89942
1.8991
1.89871
1.89826
1.89775
1.89718
1.89656
1.89587
1.89512
1.89431
1.89344
1.89251
1.89152
1.89048
1.88938
1.88822
1.88701
1.88574
1.88442
1.88304
1.88161
1.88014
1.87861
1.87703
1.87541
1.87374
1.87202
1.87026
1.86846
1.86662
1.86474
1.86282
1.86086
1.85887
1.85684
1.85478
1.85269
1.85057
1.84842
1.84625
1.84404
1.84182
1.83957
1.83729
1.835
1.83269
1.83036
1.82801
1.82564
1.82326
1.82087
1.81846
1.81605
1.81362
1.81118
1.80873
1.80627
1.80381
1.80134
1.79887
1.79639
1.79391
1.79142
1.78893
1.78644
1.78395
1.78145
1.77896
1.77647
1.77398
1.77149
1.769
1.76651
1.76403
1.76155
1.75907
1.7566
1.75413
1.75166
1.7492
1.74675
1.74429
1.74185
1.73941
1.73698
1.73455
1.73212
1.72971
1.7273
1.72489
1.72249
1.7201
1.71772
1.71534
1.71297
1.7106
1.70824
1.70589
1.70354
1.7012
1.69887
1.69654
1.69422
1.69191
1.6896
1.6873
1.68501
1.68272
1.68043
1.67816
1.67589
1.67362
1.67136
1.66911
1.66686
1.66461
1.66238
1.66014
1.65791
1.65569
1.65347
1.65126
1.64905
1.64684
1.64464
1.64245
1.64025
1.63807
1.63588
1.6337
1.63152
1.62935
1.62718
1.62501
1.62285
1.62068
1.61853
1.61637
1.61422
1.61207
1.60992
1.60777
1.60563
1.60349
1.60135
1.59921
1.59707
1.59494
1.59281
1.59067
1.58854
1.58642
1.58429
1.58216
1.58004
1.57791
1.57579
1.57366
1.57154
1.56942
1.5673
1.56518
1.56305
1.56093
1.55881
1.55669
1.55457
1.55245
1.55033
1.54821
1.54609
1.54396
1.54184
1.53972
1.53759
1.53547
1.53335
1.53122
1.52909
1.52697
1.52484
1.52271
1.52058
1.51844
1.51631
1.51418
1.51204
1.50991
1.50777
1.50563
1.50349
1.50134
1.4992
1.49705
1.49491
1.49276
1.49061
1.48845
1.4863
1.48414
1.48199
1.47982
1.47766
1.4755
1.47333
1.47116
1.46899
1.46682
1.46464
1.46247
1.46029
1.4581
1.45592
1.45373
1.45154
1.44935
1.44715
1.44496
1.44276
1.44055
1.43835
1.43614
1.43393
1.43171
1.4295
1.42728
1.42505
1.42283
1.4206
1.41837
1.41613
1.41389
1.41165
1.40941
1.40716
1.40491
1.40266
1.4004
1.39814
1.39587
1.3936
1.39133
1.38906
1.38678
1.3845
1.38221
1.37992
1.37763
1.37533
1.37303
1.37073
1.36842
1.36611
1.36379
1.36147
1.35915
1.35682
1.35449
1.35216
1.34982
1.34747
1.34512
1.34277
1.34041
1.33805
1.33569
1.33332
1.33094
1.32856
1.32618
1.32379
1.3214
1.319
1.3166
1.31419
1.31178
1.30937
1.30695
1.30452
1.30209
1.29965
1.29721
1.29477
1.29232
1.28986
1.2874
1.28493
1.28246
1.27998
1.2775
1.27501
1.27252
1.27002
1.26752
1.26501
1.26249
1.25997
1.25745
1.25492
1.25238
1.24983
1.24729
1.24473
1.24217
1.2396
1.23703
1.23445
1.23186
1.22927
1.22667
1.22407
1.22146
1.21884
1.21622
1.21359
1.21095
1.20831
1.20566
1.203
1.20034
1.19767
1.19499
1.19231
1.18962
1.18692
1.18422
1.18151
1.17879
1.17606
1.17333
1.17059
1.16784
1.16509
1.16232
1.15955
1.15678
1.15399
1.1512
1.1484
1.14559
1.14278
1.13995
1.13712
1.13428
1.13143
1.12858
1.12571
1.12284
1.11996
1.11707
1.11418
1.11127
1.10836
1.10543
1.1025
1.09956
1.09662
1.09366
1.09069
1.08772
1.08473
1.08174
1.07874
1.07573
1.07271
1.06968
1.06664
1.06359
1.06054
1.05747
1.05439
1.05131
1.04821
1.04511
1.04199
1.03887
1.03573
1.03259
1.02943
1.02627
1.02309
1.01991
1.01671
1.01351
1.01029
1.00706
1.00383
1.00058
0.997321
0.994052
0.990772
0.987482
0.984181
0.980868
0.977545
0.974211
0.970865
0.967509
0.964141
0.960761
0.957371
0.953969
0.950555
0.94713
0.943693
0.940244
0.936784
0.933312
0.929828
0.926332
0.922824
0.919304
0.915771
0.912227
0.90867
0.905101
0.901519
0.897925
0.894319
0.8907
0.887068
0.883423
0.879766
0.876096
0.872413
0.868717
0.865007
0.861285
0.85755
0.853801
0.850039
0.846264
0.842475
0.838673
0.834857
0.831028
0.827185
0.823328
0.819457
0.815573
0.811674
0.807762
0.803835
0.799895
0.79594
0.791971
0.787987
0.783989
0.779977
0.77595
0.771909
0.767853
0.763782
0.759696
0.755595
0.75148
0.747349
0.743203
0.739042
0.734866
0.730674
0.726467
0.722244
0.718006
0.713752
0.709483
0.705197
0.700896
0.696579
0.692245
0.687896
0.68353
0.679147
0.674749
0.670334
0.665902
0.661453
0.656988
0.652506
0.648007
0.643491
0.638957
0.634407
0.629839
0.625254
0.620652
0.616031
0.611394
0.606738
0.602065
0.597374
0.592665
0.587937
0.583192
0.578429
0.573647
0.568847
0.564028
0.559191
0.554335
0.549461
0.544568
0.539656
0.534725
0.529775
0.524806
0.519818
0.514811
0.509784
0.504738
0.499673
0.494588
0.489484
0.48436
0.479216
0.474052
0.468869
0.463665
0.458442
0.453198
0.447934
0.44265
0.437346
0.432021
0.426676
0.42131
0.415923
0.410516
0.405088
0.399638
0.394168
0.388677
0.383165
0.377631
0.372076
0.3665
0.360903
0.355283
0.349642
0.34398
0.338295
0.332589
0.326861
0.32111
0.315338
0.309543
0.303726
0.297886
0.292024
0.28614
0.280232
0.274302
0.26835
0.262374
0.256375
0.250353
0.244308
0.23824
0.232148
0.226033
0.219894
0.213732
0.207546
0.201336
0.195102
0.188844
0.182562
0.176256
0.169926
0.163571
0.157192
0.150788
0.144359
0.137906
0.131428
0.124925
0.118397
0.111843
0.105265
0.0986609
0.0920316
0.0853768
0.0786963
0.0719901
0.0652581
0.0585002
0.0517162
0.0449061
0.0380698
0.0312072
0.0243181
0.0174025
0.0104602
0.00349121
1.90098
1.90101
1.90099
1.9009
1.90074
1.90053
1.90026
1.89992
1.89953
1.89907
1.89855
1.89797
1.89733
1.89662
1.89586
1.89503
1.89415
1.8932
1.89219
1.89113
1.89001
1.88883
1.8876
1.88631
1.88496
1.88356
1.88211
1.88061
1.87906
1.87746
1.87581
1.87412
1.87238
1.8706
1.86877
1.86691
1.865
1.86306
1.86108
1.85907
1.85702
1.85494
1.85283
1.85069
1.84853
1.84633
1.84411
1.84187
1.8396
1.83731
1.83501
1.83268
1.83033
1.82797
1.8256
1.8232
1.8208
1.81838
1.81595
1.81352
1.81107
1.80861
1.80615
1.80368
1.8012
1.79872
1.79624
1.79375
1.79126
1.78876
1.78627
1.78377
1.78128
1.77878
1.77629
1.77379
1.7713
1.76881
1.76632
1.76384
1.76135
1.75888
1.7564
1.75393
1.75147
1.74901
1.74655
1.7441
1.74166
1.73922
1.73679
1.73436
1.73194
1.72952
1.72711
1.72471
1.72231
1.71992
1.71754
1.71516
1.71279
1.71043
1.70807
1.70572
1.70338
1.70104
1.69871
1.69639
1.69407
1.69176
1.68945
1.68715
1.68486
1.68257
1.68029
1.67802
1.67575
1.67348
1.67123
1.66897
1.66673
1.66448
1.66225
1.66002
1.65779
1.65557
1.65335
1.65114
1.64893
1.64673
1.64453
1.64234
1.64015
1.63796
1.63578
1.6336
1.63142
1.62925
1.62708
1.62492
1.62275
1.62059
1.61844
1.61628
1.61413
1.61198
1.60984
1.60769
1.60555
1.60341
1.60127
1.59913
1.597
1.59487
1.59274
1.5906
1.58848
1.58635
1.58422
1.5821
1.57997
1.57785
1.57573
1.5736
1.57148
1.56936
1.56724
1.56512
1.563
1.56088
1.55876
1.55664
1.55452
1.5524
1.55028
1.54816
1.54604
1.54392
1.54179
1.53967
1.53755
1.53543
1.5333
1.53118
1.52905
1.52692
1.5248
1.52267
1.52054
1.51841
1.51627
1.51414
1.51201
1.50987
1.50773
1.50559
1.50345
1.50131
1.49917
1.49702
1.49488
1.49273
1.49058
1.48842
1.48627
1.48411
1.48196
1.4798
1.47763
1.47547
1.4733
1.47114
1.46896
1.46679
1.46462
1.46244
1.46026
1.45808
1.45589
1.45371
1.45152
1.44932
1.44713
1.44493
1.44273
1.44053
1.43833
1.43612
1.43391
1.43169
1.42948
1.42726
1.42503
1.42281
1.42058
1.41835
1.41611
1.41388
1.41163
1.40939
1.40714
1.40489
1.40264
1.40038
1.39812
1.39586
1.39359
1.39132
1.38904
1.38677
1.38448
1.3822
1.37991
1.37762
1.37532
1.37302
1.37072
1.36841
1.3661
1.36378
1.36146
1.35914
1.35681
1.35448
1.35214
1.3498
1.34746
1.34511
1.34276
1.3404
1.33804
1.33568
1.33331
1.33093
1.32855
1.32617
1.32378
1.32139
1.31899
1.31659
1.31418
1.31177
1.30936
1.30694
1.30451
1.30208
1.29964
1.2972
1.29476
1.29231
1.28985
1.28739
1.28492
1.28245
1.27998
1.27749
1.27501
1.27251
1.27002
1.26751
1.265
1.26249
1.25997
1.25744
1.25491
1.25237
1.24983
1.24728
1.24472
1.24216
1.2396
1.23702
1.23444
1.23186
1.22927
1.22667
1.22406
1.22145
1.21884
1.21621
1.21358
1.21095
1.2083
1.20565
1.203
1.20033
1.19767
1.19499
1.19231
1.18962
1.18692
1.18421
1.1815
1.17878
1.17606
1.17333
1.17059
1.16784
1.16508
1.16232
1.15955
1.15677
1.15399
1.1512
1.1484
1.14559
1.14277
1.13995
1.13712
1.13428
1.13143
1.12857
1.12571
1.12284
1.11996
1.11707
1.11417
1.11127
1.10835
1.10543
1.1025
1.09956
1.09661
1.09366
1.09069
1.08772
1.08473
1.08174
1.07874
1.07573
1.07271
1.06968
1.06664
1.06359
1.06053
1.05747
1.05439
1.0513
1.04821
1.0451
1.04199
1.03886
1.03573
1.03259
1.02943
1.02627
1.02309
1.01991
1.01671
1.0135
1.01029
1.00706
1.00383
1.00058
0.99732
0.994051
0.990771
0.987481
0.984179
0.980867
0.977544
0.97421
0.970864
0.967507
0.964139
0.96076
0.95737
0.953967
0.950554
0.947129
0.943692
0.940243
0.936783
0.933311
0.929827
0.926331
0.922823
0.919303
0.91577
0.912226
0.908669
0.9051
0.901519
0.897925
0.894318
0.890699
0.887067
0.883423
0.879765
0.876095
0.872412
0.868716
0.865007
0.861285
0.857549
0.853801
0.850039
0.846263
0.842475
0.838672
0.834857
0.831027
0.827184
0.823327
0.819457
0.815572
0.811674
0.807761
0.803835
0.799894
0.795939
0.79197
0.787987
0.783989
0.779977
0.77595
0.771908
0.767852
0.763781
0.759695
0.755595
0.751479
0.747349
0.743203
0.739042
0.734865
0.730674
0.726467
0.722244
0.718006
0.713752
0.709483
0.705197
0.700896
0.696578
0.692245
0.687895
0.68353
0.679147
0.674749
0.670333
0.665902
0.661453
0.656988
0.652506
0.648007
0.643491
0.638957
0.634407
0.629839
0.625254
0.620652
0.616031
0.611394
0.606738
0.602065
0.597374
0.592665
0.587937
0.583192
0.578429
0.573647
0.568847
0.564028
0.559191
0.554335
0.549461
0.544568
0.539656
0.534725
0.529775
0.524806
0.519818
0.514811
0.509784
0.504738
0.499673
0.494588
0.489484
0.48436
0.479216
0.474052
0.468869
0.463665
0.458442
0.453198
0.447934
0.44265
0.437346
0.432021
0.426676
0.42131
0.415923
0.410516
0.405088
0.399638
0.394168
0.388677
0.383165
0.377631
0.372076
0.3665
0.360903
0.355283
0.349642
0.34398
0.338295
0.332589
0.326861
0.32111
0.315338
0.309543
0.303726
0.297886
0.292024
0.28614
0.280232
0.274302
0.26835
0.262374
0.256375
0.250353
0.244308
0.23824
0.232148
0.226033
0.219894
0.213732
0.207546
0.201336
0.195102
0.188844
0.182562
0.176256
0.169926
0.163571
0.157192
0.150788
0.144359
0.137906
0.131428
0.124925
0.118397
0.111843
0.105265
0.0986609
0.0920316
0.0853768
0.0786963
0.0719901
0.0652581
0.0585002
0.0517162
0.0449061
0.0380698
0.0312072
0.0243181
0.0174025
0.0104602
0.00349121
1.90259
1.90262
1.9026
1.9025
1.90234
1.90212
1.90184
1.90149
1.90108
1.9006
1.90006
1.89946
1.89879
1.89806
1.89726
1.89641
1.89549
1.89451
1.89347
1.89236
1.8912
1.88998
1.88871
1.88738
1.88599
1.88455
1.88305
1.88151
1.87991
1.87826
1.87657
1.87483
1.87305
1.87122
1.86936
1.86745
1.8655
1.86352
1.8615
1.85945
1.85736
1.85524
1.8531
1.85092
1.84872
1.84649
1.84424
1.84196
1.83966
1.83735
1.83501
1.83266
1.83029
1.8279
1.8255
1.82309
1.82066
1.81822
1.81578
1.81332
1.81086
1.80838
1.80591
1.80342
1.80094
1.79844
1.79595
1.79345
1.79095
1.78845
1.78594
1.78344
1.78094
1.77844
1.77594
1.77344
1.77094
1.76845
1.76596
1.76347
1.76099
1.75851
1.75604
1.75357
1.7511
1.74864
1.74619
1.74374
1.7413
1.73886
1.73643
1.734
1.73158
1.72917
1.72676
1.72436
1.72197
1.71958
1.7172
1.71483
1.71246
1.7101
1.70775
1.7054
1.70306
1.70073
1.6984
1.69608
1.69377
1.69146
1.68916
1.68687
1.68458
1.6823
1.68002
1.67775
1.67548
1.67322
1.67097
1.66872
1.66648
1.66424
1.66201
1.65978
1.65756
1.65534
1.65313
1.65092
1.64872
1.64652
1.64433
1.64213
1.63995
1.63776
1.63559
1.63341
1.63124
1.62907
1.6269
1.62474
1.62258
1.62042
1.61827
1.61612
1.61397
1.61183
1.60968
1.60754
1.6054
1.60326
1.60113
1.59899
1.59686
1.59473
1.5926
1.59047
1.58835
1.58622
1.5841
1.58197
1.57985
1.57773
1.57561
1.57349
1.57137
1.56925
1.56713
1.56501
1.56289
1.56078
1.55866
1.55654
1.55442
1.5523
1.55019
1.54807
1.54595
1.54383
1.54171
1.53959
1.53746
1.53534
1.53322
1.5311
1.52897
1.52685
1.52472
1.52259
1.52046
1.51833
1.5162
1.51407
1.51194
1.5098
1.50767
1.50553
1.50339
1.50125
1.4991
1.49696
1.49481
1.49267
1.49052
1.48837
1.48621
1.48406
1.4819
1.47974
1.47758
1.47542
1.47325
1.47108
1.46891
1.46674
1.46457
1.46239
1.46021
1.45803
1.45585
1.45366
1.45147
1.44928
1.44709
1.44489
1.44269
1.44049
1.43828
1.43608
1.43387
1.43165
1.42944
1.42722
1.425
1.42277
1.42054
1.41831
1.41608
1.41384
1.4116
1.40936
1.40711
1.40486
1.40261
1.40035
1.39809
1.39583
1.39356
1.39129
1.38902
1.38674
1.38446
1.38217
1.37988
1.37759
1.37529
1.37299
1.37069
1.36838
1.36607
1.36376
1.36144
1.35912
1.35679
1.35446
1.35212
1.34978
1.34744
1.34509
1.34274
1.34038
1.33802
1.33566
1.33329
1.33091
1.32853
1.32615
1.32376
1.32137
1.31897
1.31657
1.31417
1.31176
1.30934
1.30692
1.30449
1.30206
1.29963
1.29719
1.29474
1.29229
1.28984
1.28738
1.28491
1.28244
1.27996
1.27748
1.27499
1.2725
1.27
1.2675
1.26499
1.26248
1.25996
1.25743
1.2549
1.25236
1.24982
1.24727
1.24471
1.24215
1.23958
1.23701
1.23443
1.23185
1.22925
1.22666
1.22405
1.22144
1.21883
1.2162
1.21357
1.21094
1.20829
1.20565
1.20299
1.20033
1.19766
1.19498
1.1923
1.18961
1.18691
1.18421
1.18149
1.17878
1.17605
1.17332
1.17058
1.16783
1.16508
1.16231
1.15954
1.15677
1.15398
1.15119
1.14839
1.14558
1.14277
1.13994
1.13711
1.13427
1.13142
1.12857
1.12571
1.12283
1.11995
1.11707
1.11417
1.11126
1.10835
1.10543
1.1025
1.09956
1.09661
1.09365
1.09069
1.08771
1.08473
1.08174
1.07873
1.07572
1.0727
1.06967
1.06664
1.06359
1.06053
1.05746
1.05439
1.0513
1.04821
1.0451
1.04199
1.03886
1.03573
1.03258
1.02943
1.02626
1.02309
1.0199
1.01671
1.0135
1.01029
1.00706
1.00382
1.00058
0.997317
0.994048
0.990769
0.987478
0.984177
0.980865
0.977542
0.974207
0.970862
0.967505
0.964137
0.960758
0.957368
0.953966
0.950552
0.947127
0.94369
0.940242
0.936781
0.933309
0.929825
0.926329
0.922821
0.919301
0.915769
0.912224
0.908668
0.905099
0.901517
0.897923
0.894317
0.890698
0.887066
0.883421
0.879764
0.876094
0.872411
0.868715
0.865006
0.861283
0.857548
0.853799
0.850038
0.846262
0.842474
0.838671
0.834856
0.831026
0.827183
0.823326
0.819456
0.815571
0.811673
0.807761
0.803834
0.799893
0.795939
0.79197
0.787986
0.783988
0.779976
0.775949
0.771908
0.767851
0.763781
0.759695
0.755594
0.751479
0.747348
0.743202
0.739041
0.734865
0.730673
0.726466
0.722244
0.718006
0.713752
0.709482
0.705197
0.700895
0.696578
0.692245
0.687895
0.683529
0.679147
0.674748
0.670333
0.665901
0.661453
0.656988
0.652506
0.648007
0.64349
0.638957
0.634407
0.629839
0.625254
0.620651
0.616031
0.611394
0.606738
0.602065
0.597374
0.592665
0.587937
0.583192
0.578429
0.573647
0.568847
0.564028
0.559191
0.554335
0.549461
0.544568
0.539656
0.534725
0.529775
0.524806
0.519818
0.514811
0.509784
0.504738
0.499673
0.494588
0.489484
0.48436
0.479216
0.474052
0.468869
0.463665
0.458442
0.453198
0.447934
0.44265
0.437346
0.432021
0.426676
0.42131
0.415923
0.410516
0.405088
0.399638
0.394168
0.388677
0.383165
0.377631
0.372076
0.3665
0.360903
0.355283
0.349642
0.34398
0.338295
0.332589
0.326861
0.32111
0.315338
0.309543
0.303726
0.297886
0.292024
0.28614
0.280232
0.274302
0.26835
0.262374
0.256375
0.250353
0.244308
0.23824
0.232148
0.226033
0.219894
0.213732
0.207546
0.201336
0.195102
0.188844
0.182562
0.176256
0.169926
0.163571
0.157192
0.150788
0.144359
0.137906
0.131428
0.124925
0.118397
0.111843
0.105265
0.0986609
0.0920316
0.0853768
0.0786963
0.0719901
0.0652581
0.0585002
0.0517162
0.0449061
0.0380698
0.0312072
0.0243181
0.0174025
0.0104602
0.00349121
1.9049
1.90493
1.90491
1.90481
1.90464
1.9044
1.9041
1.90373
1.9033
1.90279
1.90222
1.90159
1.90088
1.90011
1.89927
1.89837
1.8974
1.89637
1.89528
1.89412
1.8929
1.89162
1.89029
1.88889
1.88744
1.88594
1.88438
1.88277
1.88111
1.8794
1.87764
1.87584
1.87399
1.8721
1.87017
1.8682
1.86619
1.86415
1.86207
1.85996
1.85782
1.85565
1.85345
1.85122
1.84897
1.84669
1.84439
1.84207
1.83973
1.83737
1.835
1.83261
1.8302
1.82778
1.82535
1.8229
1.82045
1.81798
1.81551
1.81303
1.81054
1.80805
1.80555
1.80305
1.80054
1.79804
1.79553
1.79301
1.7905
1.78799
1.78548
1.78296
1.78045
1.77794
1.77544
1.77293
1.77043
1.76794
1.76544
1.76295
1.76047
1.75799
1.75551
1.75304
1.75058
1.74812
1.74567
1.74322
1.74078
1.73835
1.73592
1.7335
1.73108
1.72867
1.72627
1.72387
1.72149
1.7191
1.71673
1.71436
1.712
1.70964
1.7073
1.70496
1.70262
1.70029
1.69797
1.69566
1.69335
1.69105
1.68875
1.68647
1.68418
1.68191
1.67964
1.67737
1.67511
1.67286
1.67061
1.66837
1.66613
1.6639
1.66168
1.65945
1.65724
1.65503
1.65282
1.65062
1.64842
1.64622
1.64403
1.64185
1.63967
1.63749
1.63531
1.63314
1.63098
1.62881
1.62665
1.62449
1.62234
1.62019
1.61804
1.61589
1.61375
1.6116
1.60946
1.60733
1.60519
1.60306
1.60093
1.5988
1.59667
1.59454
1.59241
1.59029
1.58817
1.58605
1.58392
1.5818
1.57968
1.57757
1.57545
1.57333
1.57121
1.5691
1.56698
1.56487
1.56275
1.56063
1.55852
1.5564
1.55429
1.55217
1.55006
1.54794
1.54582
1.5437
1.54159
1.53947
1.53735
1.53523
1.53311
1.53098
1.52886
1.52674
1.52461
1.52249
1.52036
1.51823
1.5161
1.51397
1.51184
1.50971
1.50757
1.50544
1.5033
1.50116
1.49902
1.49688
1.49473
1.49258
1.49044
1.48829
1.48613
1.48398
1.48182
1.47967
1.47751
1.47535
1.47318
1.47101
1.46885
1.46668
1.4645
1.46233
1.46015
1.45797
1.45579
1.4536
1.45141
1.44922
1.44703
1.44483
1.44263
1.44043
1.43823
1.43602
1.43381
1.4316
1.42939
1.42717
1.42495
1.42272
1.4205
1.41827
1.41603
1.4138
1.41156
1.40931
1.40707
1.40482
1.40256
1.40031
1.39805
1.39579
1.39352
1.39125
1.38898
1.3867
1.38442
1.38213
1.37985
1.37755
1.37526
1.37296
1.37066
1.36835
1.36604
1.36372
1.36141
1.35908
1.35676
1.35443
1.35209
1.34975
1.34741
1.34506
1.34271
1.34035
1.33799
1.33563
1.33326
1.33089
1.32851
1.32612
1.32374
1.32135
1.31895
1.31655
1.31414
1.31173
1.30932
1.3069
1.30447
1.30204
1.29961
1.29717
1.29472
1.29227
1.28982
1.28736
1.28489
1.28242
1.27994
1.27746
1.27497
1.27248
1.26998
1.26748
1.26497
1.26246
1.25994
1.25741
1.25488
1.25234
1.2498
1.24725
1.2447
1.24214
1.23957
1.237
1.23442
1.23183
1.22924
1.22664
1.22404
1.22143
1.21881
1.21619
1.21356
1.21092
1.20828
1.20563
1.20298
1.20031
1.19765
1.19497
1.19229
1.1896
1.1869
1.1842
1.18148
1.17877
1.17604
1.17331
1.17057
1.16782
1.16507
1.1623
1.15954
1.15676
1.15397
1.15118
1.14838
1.14557
1.14276
1.13993
1.1371
1.13426
1.13142
1.12856
1.1257
1.12283
1.11995
1.11706
1.11416
1.11126
1.10834
1.10542
1.10249
1.09955
1.0966
1.09365
1.09068
1.08771
1.08472
1.08173
1.07873
1.07572
1.0727
1.06967
1.06663
1.06358
1.06053
1.05746
1.05438
1.0513
1.0482
1.0451
1.04198
1.03886
1.03572
1.03258
1.02942
1.02626
1.02308
1.0199
1.0167
1.0135
1.01028
1.00706
1.00382
1.00057
0.997314
0.994045
0.990766
0.987475
0.984174
0.980862
0.977539
0.974204
0.970859
0.967503
0.964135
0.960756
0.957365
0.953963
0.950549
0.947124
0.943688
0.940239
0.936779
0.933307
0.929823
0.926327
0.922819
0.919299
0.915767
0.912222
0.908666
0.905097
0.901515
0.897921
0.894315
0.890696
0.887064
0.88342
0.879762
0.876092
0.872409
0.868713
0.865004
0.861282
0.857547
0.853798
0.850036
0.846261
0.842472
0.83867
0.834854
0.831025
0.827182
0.823325
0.819455
0.81557
0.811672
0.807759
0.803833
0.799892
0.795938
0.791968
0.787985
0.783987
0.779975
0.775948
0.771907
0.767851
0.76378
0.759694
0.755593
0.751478
0.747347
0.743201
0.73904
0.734864
0.730673
0.726466
0.722243
0.718005
0.713751
0.709482
0.705196
0.700895
0.696578
0.692244
0.687895
0.683529
0.679147
0.674748
0.670333
0.665901
0.661453
0.656987
0.652505
0.648006
0.64349
0.638957
0.634407
0.629839
0.625254
0.620651
0.616031
0.611393
0.606738
0.602065
0.597374
0.592664
0.587937
0.583192
0.578428
0.573647
0.568847
0.564028
0.559191
0.554335
0.549461
0.544568
0.539656
0.534725
0.529775
0.524806
0.519818
0.514811
0.509784
0.504738
0.499673
0.494588
0.489484
0.48436
0.479216
0.474052
0.468869
0.463665
0.458442
0.453198
0.447934
0.44265
0.437346
0.432021
0.426676
0.42131
0.415923
0.410516
0.405088
0.399638
0.394168
0.388677
0.383165
0.377631
0.372076
0.3665
0.360903
0.355283
0.349642
0.34398
0.338295
0.332589
0.326861
0.32111
0.315338
0.309543
0.303726
0.297886
0.292024
0.28614
0.280232
0.274302
0.26835
0.262374
0.256375
0.250353
0.244308
0.23824
0.232148
0.226033
0.219894
0.213732
0.207546
0.201336
0.195102
0.188844
0.182562
0.176256
0.169926
0.163571
0.157192
0.150788
0.144359
0.137906
0.131428
0.124925
0.118397
0.111843
0.105265
0.0986609
0.0920316
0.0853768
0.0786963
0.0719901
0.0652581
0.0585002
0.0517162
0.0449061
0.0380698
0.0312072
0.0243181
0.0174025
0.0104602
0.00349121
1.90786
1.9079
1.90787
1.90776
1.90758
1.90733
1.90701
1.90661
1.90614
1.9056
1.90499
1.90431
1.90355
1.90273
1.90183
1.90087
1.89984
1.89874
1.89757
1.89634
1.89505
1.89369
1.89228
1.8908
1.88927
1.88768
1.88604
1.88435
1.8826
1.88081
1.87897
1.87708
1.87515
1.87318
1.87117
1.86912
1.86703
1.86491
1.86276
1.86058
1.85836
1.85612
1.85386
1.85156
1.84925
1.84691
1.84455
1.84218
1.83979
1.83738
1.83495
1.83251
1.83006
1.8276
1.82513
1.82264
1.82015
1.81765
1.81515
1.81264
1.81013
1.80761
1.80508
1.80256
1.80003
1.79751
1.79498
1.79245
1.78992
1.7874
1.78487
1.78235
1.77983
1.77731
1.7748
1.77229
1.76978
1.76728
1.76478
1.76229
1.75981
1.75732
1.75485
1.75238
1.74992
1.74746
1.74501
1.74256
1.74013
1.7377
1.73527
1.73285
1.73044
1.72804
1.72564
1.72325
1.72087
1.7185
1.71613
1.71377
1.71141
1.70906
1.70672
1.70439
1.70206
1.69974
1.69743
1.69512
1.69282
1.69053
1.68824
1.68596
1.68369
1.68142
1.67916
1.6769
1.67465
1.6724
1.67016
1.66793
1.6657
1.66348
1.66126
1.65904
1.65683
1.65463
1.65243
1.65023
1.64804
1.64586
1.64367
1.64149
1.63932
1.63715
1.63498
1.63281
1.63065
1.62849
1.62634
1.62419
1.62204
1.61989
1.61775
1.61561
1.61347
1.61133
1.6092
1.60706
1.60493
1.60281
1.60068
1.59855
1.59643
1.59431
1.59218
1.59006
1.58795
1.58583
1.58371
1.58159
1.57948
1.57736
1.57525
1.57314
1.57102
1.56891
1.5668
1.56469
1.56257
1.56046
1.55835
1.55624
1.55412
1.55201
1.5499
1.54778
1.54567
1.54355
1.54144
1.53932
1.53721
1.53509
1.53297
1.53085
1.52873
1.52661
1.52449
1.52236
1.52024
1.51811
1.51598
1.51386
1.51173
1.50959
1.50746
1.50533
1.50319
1.50105
1.49891
1.49677
1.49463
1.49248
1.49034
1.48819
1.48604
1.48389
1.48173
1.47958
1.47742
1.47526
1.4731
1.47093
1.46876
1.46659
1.46442
1.46225
1.46007
1.45789
1.45571
1.45353
1.45134
1.44915
1.44696
1.44476
1.44257
1.44037
1.43816
1.43596
1.43375
1.43154
1.42932
1.42711
1.42489
1.42266
1.42044
1.41821
1.41598
1.41374
1.4115
1.40926
1.40701
1.40476
1.40251
1.40026
1.398
1.39574
1.39347
1.3912
1.38893
1.38665
1.38437
1.38209
1.3798
1.37751
1.37522
1.37292
1.37062
1.36831
1.366
1.36368
1.36137
1.35904
1.35672
1.35439
1.35205
1.34972
1.34737
1.34503
1.34267
1.34032
1.33796
1.3356
1.33323
1.33085
1.32848
1.32609
1.32371
1.32132
1.31892
1.31652
1.31411
1.3117
1.30929
1.30687
1.30444
1.30202
1.29958
1.29714
1.2947
1.29225
1.28979
1.28733
1.28487
1.2824
1.27992
1.27744
1.27495
1.27246
1.26996
1.26746
1.26495
1.26244
1.25992
1.25739
1.25486
1.25232
1.24978
1.24723
1.24468
1.24212
1.23955
1.23698
1.2344
1.23182
1.22922
1.22663
1.22402
1.22141
1.2188
1.21617
1.21355
1.21091
1.20827
1.20562
1.20296
1.2003
1.19763
1.19496
1.19227
1.18958
1.18689
1.18418
1.18147
1.17875
1.17603
1.1733
1.17056
1.16781
1.16506
1.16229
1.15952
1.15675
1.15396
1.15117
1.14837
1.14556
1.14275
1.13993
1.13709
1.13425
1.13141
1.12855
1.12569
1.12282
1.11994
1.11705
1.11415
1.11125
1.10833
1.10541
1.10248
1.09954
1.09659
1.09364
1.09067
1.0877
1.08471
1.08172
1.07872
1.07571
1.07269
1.06966
1.06662
1.06358
1.06052
1.05745
1.05438
1.05129
1.0482
1.04509
1.04198
1.03885
1.03572
1.03257
1.02942
1.02625
1.02308
1.01989
1.0167
1.01349
1.01028
1.00705
1.00382
1.00057
0.99731
0.994041
0.990762
0.987471
0.98417
0.980858
0.977535
0.974201
0.970856
0.967499
0.964131
0.960752
0.957362
0.95396
0.950546
0.947121
0.943685
0.940236
0.936776
0.933304
0.92982
0.926324
0.922816
0.919297
0.915764
0.91222
0.908663
0.905094
0.901513
0.897919
0.894313
0.890694
0.887062
0.883418
0.87976
0.87609
0.872407
0.868711
0.865002
0.86128
0.857545
0.853796
0.850034
0.846259
0.842471
0.838668
0.834853
0.831023
0.82718
0.823324
0.819453
0.815569
0.81167
0.807758
0.803832
0.799891
0.795936
0.791967
0.787984
0.783986
0.779974
0.775947
0.771906
0.767849
0.763779
0.759693
0.755592
0.751477
0.747346
0.7432
0.73904
0.734863
0.730672
0.726465
0.722242
0.718004
0.71375
0.709481
0.705196
0.700894
0.696577
0.692244
0.687894
0.683528
0.679146
0.674748
0.670332
0.665901
0.661452
0.656987
0.652505
0.648006
0.64349
0.638957
0.634406
0.629839
0.625254
0.620651
0.616031
0.611393
0.606738
0.602065
0.597373
0.592664
0.587937
0.583192
0.578428
0.573647
0.568847
0.564028
0.559191
0.554335
0.549461
0.544568
0.539656
0.534725
0.529775
0.524806
0.519818
0.514811
0.509784
0.504738
0.499673
0.494588
0.489484
0.48436
0.479216
0.474052
0.468869
0.463665
0.458442
0.453198
0.447934
0.44265
0.437346
0.432021
0.426676
0.42131
0.415923
0.410516
0.405088
0.399638
0.394168
0.388677
0.383165
0.377631
0.372076
0.3665
0.360903
0.355283
0.349642
0.34398
0.338295
0.332589
0.326861
0.32111
0.315338
0.309543
0.303726
0.297886
0.292024
0.28614
0.280232
0.274302
0.26835
0.262374
0.256375
0.250353
0.244308
0.23824
0.232148
0.226033
0.219894
0.213732
0.207546
0.201336
0.195102
0.188844
0.182562
0.176256
0.169926
0.163571
0.157192
0.150788
0.144359
0.137906
0.131428
0.124925
0.118397
0.111843
0.105265
0.0986609
0.0920316
0.0853768
0.0786963
0.0719901
0.0652581
0.0585002
0.0517162
0.0449061
0.0380698
0.0312072
0.0243181
0.0174025
0.0104602
0.00349121
1.91145
1.91149
1.91146
1.91134
1.91114
1.91086
1.91051
1.91008
1.90957
1.90899
1.90832
1.90758
1.90677
1.90587
1.90491
1.90386
1.90275
1.90157
1.90031
1.89899
1.89761
1.89615
1.89464
1.89306
1.89143
1.88974
1.88799
1.8862
1.88435
1.88245
1.88051
1.87852
1.87649
1.87442
1.87231
1.87016
1.86799
1.86577
1.86353
1.86126
1.85896
1.85664
1.85429
1.85192
1.84954
1.84713
1.8447
1.84226
1.8398
1.83733
1.83485
1.83236
1.82986
1.82735
1.82483
1.8223
1.81977
1.81723
1.81469
1.81215
1.8096
1.80705
1.8045
1.80195
1.7994
1.79685
1.7943
1.79176
1.78921
1.78667
1.78413
1.7816
1.77907
1.77654
1.77402
1.77151
1.769
1.76649
1.76399
1.7615
1.75901
1.75653
1.75405
1.75158
1.74912
1.74667
1.74422
1.74178
1.73935
1.73692
1.7345
1.73209
1.72969
1.72729
1.7249
1.72252
1.72014
1.71778
1.71542
1.71306
1.71072
1.70838
1.70605
1.70372
1.70141
1.6991
1.69679
1.6945
1.6922
1.68992
1.68764
1.68537
1.68311
1.68085
1.67859
1.67635
1.6741
1.67187
1.66964
1.66741
1.66519
1.66298
1.66077
1.65856
1.65636
1.65417
1.65197
1.64979
1.6476
1.64543
1.64325
1.64108
1.63891
1.63675
1.63459
1.63243
1.63028
1.62813
1.62598
1.62383
1.62169
1.61955
1.61741
1.61528
1.61315
1.61102
1.60889
1.60676
1.60464
1.60251
1.60039
1.59827
1.59615
1.59404
1.59192
1.58981
1.58769
1.58558
1.58347
1.58135
1.57924
1.57713
1.57502
1.57291
1.57081
1.5687
1.56659
1.56448
1.56237
1.56026
1.55815
1.55604
1.55394
1.55183
1.54972
1.54761
1.54549
1.54338
1.54127
1.53916
1.53704
1.53493
1.53281
1.5307
1.52858
1.52646
1.52434
1.52222
1.5201
1.51797
1.51585
1.51372
1.51159
1.50947
1.50733
1.5052
1.50307
1.50093
1.4988
1.49666
1.49452
1.49237
1.49023
1.48808
1.48593
1.48378
1.48163
1.47948
1.47732
1.47516
1.473
1.47084
1.46867
1.4665
1.46433
1.46216
1.45998
1.45781
1.45563
1.45344
1.45126
1.44907
1.44688
1.44469
1.44249
1.44029
1.43809
1.43589
1.43368
1.43147
1.42925
1.42704
1.42482
1.4226
1.42037
1.41814
1.41591
1.41368
1.41144
1.4092
1.40695
1.40471
1.40246
1.4002
1.39794
1.39568
1.39342
1.39115
1.38888
1.3866
1.38432
1.38204
1.37975
1.37746
1.37517
1.37287
1.37057
1.36826
1.36595
1.36364
1.36132
1.359
1.35668
1.35435
1.35201
1.34968
1.34733
1.34499
1.34264
1.34028
1.33792
1.33556
1.33319
1.33082
1.32844
1.32606
1.32367
1.32128
1.31889
1.31649
1.31408
1.31167
1.30926
1.30684
1.30441
1.30199
1.29955
1.29711
1.29467
1.29222
1.28976
1.28731
1.28484
1.28237
1.27989
1.27741
1.27493
1.27244
1.26994
1.26744
1.26493
1.26241
1.2599
1.25737
1.25484
1.2523
1.24976
1.24721
1.24466
1.2421
1.23953
1.23696
1.23438
1.2318
1.22921
1.22661
1.22401
1.2214
1.21878
1.21616
1.21353
1.21089
1.20825
1.2056
1.20295
1.20028
1.19762
1.19494
1.19226
1.18957
1.18687
1.18417
1.18146
1.17874
1.17602
1.17328
1.17054
1.1678
1.16504
1.16228
1.15951
1.15674
1.15395
1.15116
1.14836
1.14555
1.14274
1.13991
1.13708
1.13424
1.1314
1.12854
1.12568
1.12281
1.11993
1.11704
1.11414
1.11124
1.10833
1.1054
1.10247
1.09953
1.09659
1.09363
1.09066
1.08769
1.08471
1.08172
1.07871
1.0757
1.07268
1.06966
1.06662
1.06357
1.06051
1.05745
1.05437
1.05128
1.04819
1.04508
1.04197
1.03885
1.03571
1.03257
1.02941
1.02625
1.02307
1.01989
1.01669
1.01349
1.01027
1.00705
1.00381
1.00056
0.997305
0.994037
0.990757
0.987467
0.984166
0.980854
0.977531
0.974197
0.970852
0.967495
0.964128
0.960749
0.957358
0.953956
0.950543
0.947118
0.943681
0.940233
0.936773
0.933301
0.929817
0.926321
0.922814
0.919294
0.915762
0.912217
0.908661
0.905092
0.90151
0.897917
0.89431
0.890691
0.88706
0.883415
0.879758
0.876088
0.872405
0.868709
0.865
0.861278
0.857543
0.853794
0.850032
0.846257
0.842469
0.838667
0.834851
0.831022
0.827179
0.823322
0.819452
0.815567
0.811669
0.807756
0.80383
0.79989
0.795935
0.791966
0.787982
0.783985
0.779972
0.775946
0.771904
0.767848
0.763777
0.759692
0.755591
0.751476
0.747345
0.743199
0.739039
0.734862
0.730671
0.726464
0.722241
0.718003
0.71375
0.70948
0.705195
0.700894
0.696576
0.692243
0.687893
0.683528
0.679146
0.674747
0.670332
0.6659
0.661452
0.656987
0.652505
0.648006
0.64349
0.638957
0.634406
0.629839
0.625253
0.620651
0.616031
0.611393
0.606738
0.602064
0.597373
0.592664
0.587937
0.583192
0.578428
0.573647
0.568846
0.564028
0.559191
0.554335
0.549461
0.544568
0.539656
0.534725
0.529775
0.524806
0.519818
0.514811
0.509784
0.504738
0.499673
0.494588
0.489484
0.48436
0.479216
0.474052
0.468869
0.463665
0.458442
0.453198
0.447934
0.44265
0.437346
0.432021
0.426676
0.42131
0.415923
0.410516
0.405088
0.399638
0.394168
0.388677
0.383165
0.377631
0.372076
0.3665
0.360903
0.355283
0.349642
0.34398
0.338295
0.332589
0.326861
0.32111
0.315338
0.309543