/*--------------------------------*- C++ -*----------------------------------*\
  =========                 |
  \\      /  F ield         | OpenFOAM: The Open Source CFD Toolbox
   \\    /   O peration     | Website:  https://openfoam.org
    \\  /    A nd           | Version:  7
     \\/     M anipulation  |
\*---------------------------------------------------------------------------*/
FoamFile
{
    version     2.0;
    format      ascii;
    class       surfaceScalarField;
    location    "8";
    object      phi;
}
// * * * * * * * * * * * * * * * * * * * * * * * * * * * * * * * * * * * * * //

dimensions      [0 3 -1 0 0 0 0];

internalField   nonuniform List<scalar> 
95320
(
0.00250152
-7.10058e-08
2.63912e-14
0.00250174
-2.14568e-07
-7.05377e-14
0.0025021
-3.599e-07
-7.37308e-14
0.0025026
-5.06712e-07
-1.46232e-14
0.00250326
-6.54801e-07
1.46324e-14
0.00250406
-8.03959e-07
2.69313e-14
0.00250502
-9.53975e-07
2.96717e-14
0.00250612
-1.10463e-06
2.56608e-14
0.00250738
-1.2557e-06
2.09852e-14
0.00250878
-1.40697e-06
1.6646e-14
0.00251034
-1.55821e-06
1.0745e-14
0.00251205
-1.70919e-06
6.16341e-15
0.00251391
-1.85969e-06
2.61433e-15
0.00251592
-2.00949e-06
-2.73461e-16
0.00251808
-2.15836e-06
-6.65132e-16
0.00252038
-2.30608e-06
1.77579e-15
0.00252284
-2.45244e-06
4.06729e-15
0.00252543
-2.59724e-06
5.89648e-15
0.00252817
-2.74027e-06
9.38407e-15
0.00253106
-2.88134e-06
1.2791e-14
0.00253408
-3.02026e-06
1.37325e-14
0.00253723
-3.15685e-06
1.38932e-14
0.00254052
-3.29095e-06
1.30204e-14
0.00254395
-3.42238e-06
1.00872e-14
0.0025475
-3.55102e-06
5.45231e-15
0.00255117
-3.67671e-06
-1.05841e-15
0.00255497
-3.79933e-06
-7.95902e-15
0.00255889
-3.91876e-06
-1.65348e-14
0.00256293
-4.0349e-06
-2.83819e-14
0.00256707
-4.14765e-06
-4.15317e-14
0.00257133
-4.25694e-06
-5.42809e-14
0.00257569
-4.36269e-06
-6.83918e-14
0.00258016
-4.46484e-06
-8.30516e-14
0.00258472
-4.56335e-06
-9.70348e-14
0.00258938
-4.65818e-06
-1.10923e-13
0.00259413
-4.7493e-06
-1.23864e-13
0.00259897
-4.83669e-06
-1.3454e-13
0.00260389
-4.92036e-06
-1.44567e-13
0.00260889
-5.0003e-06
-1.53765e-13
0.00261396
-5.07653e-06
-1.608e-13
0.00261911
-5.14906e-06
-1.67006e-13
0.00262433
-5.21793e-06
-1.72638e-13
0.00262961
-5.28318e-06
-1.75893e-13
0.00263496
-5.34485e-06
-1.77978e-13
0.00264036
-5.40298e-06
-1.80209e-13
0.00264582
-5.45765e-06
-1.80638e-13
0.00265133
-5.5089e-06
-1.78602e-13
0.00265688
-5.55681e-06
-1.75401e-13
0.00266249
-5.60145e-06
-1.69866e-13
0.00266813
-5.64289e-06
-1.60715e-13
0.00267381
-5.68122e-06
-1.49667e-13
0.00267953
-5.71651e-06
-1.38077e-13
0.00268528
-5.74886e-06
-1.25254e-13
0.00269105
-5.77834e-06
-1.11188e-13
0.00269686
-5.80506e-06
-9.7073e-14
0.00270269
-5.82909e-06
-8.31673e-14
0.00270854
-5.85054e-06
-6.8661e-14
0.00271441
-5.86949e-06
-5.34575e-14
0.00272029
-5.88603e-06
-3.81378e-14
0.00272619
-5.90026e-06
-2.25124e-14
0.00273211
-5.91228e-06
-5.88568e-15
0.00273803
-5.92216e-06
1.04001e-14
0.00274396
-5.93e-06
2.69906e-14
0.00274989
-5.9359e-06
4.35806e-14
0.00275583
-5.93993e-06
5.97816e-14
0.00276178
-5.94219e-06
7.52315e-14
0.00276772
-5.94277e-06
8.98503e-14
0.00277366
-5.94173e-06
1.03578e-13
0.0027796
-5.93918e-06
1.16252e-13
0.00278554
-5.93518e-06
1.27667e-13
0.00279147
-5.92982e-06
1.37875e-13
0.00279739
-5.92317e-06
1.47422e-13
0.0028033
-5.9153e-06
1.56562e-13
0.00280921
-5.90628e-06
1.6456e-13
0.00281511
-5.89619e-06
1.70591e-13
0.00282099
-5.88509e-06
1.74893e-13
0.00282686
-5.87304e-06
1.78469e-13
0.00283272
-5.8601e-06
1.82049e-13
0.00283857
-5.84634e-06
1.85696e-13
0.0028444
-5.83182e-06
1.88972e-13
0.00285022
-5.81658e-06
1.91059e-13
0.00285602
-5.80068e-06
1.91091e-13
0.0028618
-5.78416e-06
1.88848e-13
0.00286757
-5.76709e-06
1.84959e-13
0.00287332
-5.74949e-06
1.80182e-13
0.00287905
-5.73143e-06
1.7456e-13
0.00288477
-5.71292e-06
1.67395e-13
0.00289046
-5.69403e-06
1.58055e-13
0.00289613
-5.67478e-06
1.46731e-13
0.00290179
-5.6552e-06
1.34279e-13
0.00290742
-5.63534e-06
1.21523e-13
0.00291304
-5.61521e-06
1.08687e-13
0.00291863
-5.59486e-06
9.55076e-14
0.00292421
-5.57431e-06
8.14017e-14
0.00292976
-5.55359e-06
6.57623e-14
0.0029353
-5.53271e-06
4.85983e-14
0.00294081
-5.5117e-06
2.84745e-14
0.0029463
-5.49059e-06
8.28331e-15
0.00295177
-5.46939e-06
-1.23848e-14
0.00295721
-5.44812e-06
-3.31005e-14
0.00296264
-5.4268e-06
-5.31851e-14
0.00296805
-5.40544e-06
-7.25748e-14
0.00297343
-5.38406e-06
-9.15135e-14
0.00297879
-5.36267e-06
-1.1051e-13
0.00298414
-5.34128e-06
-1.2954e-13
0.00298946
-5.3199e-06
-1.48114e-13
0.00299475
-5.29854e-06
-1.66254e-13
0.00300003
-5.27722e-06
-1.85095e-13
0.00300529
-5.25593e-06
-2.06041e-13
0.00301052
-5.23469e-06
-2.2928e-13
0.00301574
-5.21351e-06
-2.53827e-13
0.00302093
-5.19238e-06
-2.78629e-13
0.0030261
-5.17131e-06
-3.03044e-13
0.00303125
-5.1503e-06
-3.26573e-13
0.00303638
-5.12937e-06
-3.48567e-13
0.00304149
-5.10851e-06
-3.68571e-13
0.00304657
-5.08772e-06
-3.86724e-13
0.00305164
-5.067e-06
-4.03605e-13
0.00305669
-5.04636e-06
-4.19553e-13
0.00306171
-5.02579e-06
-4.34112e-13
0.00306672
-5.0053e-06
-4.46381e-13
0.0030717
-4.98489e-06
-4.5598e-13
0.00307667
-4.96455e-06
-4.63578e-13
0.00308161
-4.94428e-06
-4.69999e-13
0.00308654
-4.92409e-06
-4.75413e-13
0.00309144
-4.90396e-06
-4.79604e-13
0.00309632
-4.88391e-06
-4.82299e-13
0.00310119
-4.86392e-06
-4.83121e-13
0.00310603
-4.84399e-06
-4.81574e-13
0.00311086
-4.82412e-06
-4.77597e-13
0.00311566
-4.80431e-06
-4.71902e-13
0.00312045
-4.78456e-06
-4.65689e-13
0.00312521
-4.76486e-06
-4.60334e-13
0.00312996
-4.74521e-06
-4.57044e-13
0.00313468
-4.7256e-06
-4.56202e-13
0.00313939
-4.70604e-06
-4.56822e-13
0.00314407
-4.68651e-06
-4.57457e-13
0.00314874
-4.66703e-06
-4.56983e-13
0.00315339
-4.64757e-06
-4.54404e-13
0.00315802
-4.62814e-06
-4.48622e-13
0.00316263
-4.60874e-06
-4.38803e-13
0.00316721
-4.58936e-06
-4.24892e-13
0.00317178
-4.57001e-06
-4.07441e-13
0.00317634
-4.55066e-06
-3.87586e-13
0.00318087
-4.53133e-06
-3.66236e-13
0.00318538
-4.51201e-06
-3.4335e-13
0.00318987
-4.4927e-06
-3.17641e-13
0.00319434
-4.47339e-06
-2.87889e-13
0.0031988
-4.45408e-06
-2.54117e-13
0.00320323
-4.43476e-06
-2.17169e-13
0.00320765
-4.41545e-06
-1.78226e-13
0.00321205
-4.39612e-06
-1.38396e-13
0.00321642
-4.37678e-06
-9.88992e-14
0.00322078
-4.35744e-06
-6.04853e-14
0.00322512
-4.33807e-06
-2.30226e-14
0.00322944
-4.31869e-06
1.42365e-14
0.00323374
-4.29929e-06
5.18274e-14
0.00323802
-4.27987e-06
9.05249e-14
0.00324228
-4.26043e-06
1.30704e-13
0.00324652
-4.24096e-06
1.71821e-13
0.00325074
-4.22146e-06
2.12808e-13
0.00325494
-4.20193e-06
2.52953e-13
0.00325912
-4.18238e-06
2.92178e-13
0.00326329
-4.1628e-06
3.30612e-13
0.00326743
-4.14318e-06
3.68621e-13
0.00327155
-4.12353e-06
4.06146e-13
0.00327566
-4.10384e-06
4.42654e-13
0.00327974
-4.08412e-06
4.76598e-13
0.0032838
-4.06437e-06
5.06677e-13
0.00328785
-4.04457e-06
5.3346e-13
0.00329187
-4.02474e-06
5.58396e-13
0.00329588
-4.00488e-06
5.83507e-13
0.00329986
-3.98497e-06
6.10281e-13
0.00330383
-3.96503e-06
6.37703e-13
0.00330777
-3.94505e-06
6.63821e-13
0.0033117
-3.92503e-06
6.86625e-13
0.0033156
-3.90498e-06
7.04836e-13
0.00331949
-3.88489e-06
7.19316e-13
0.00332335
-3.86475e-06
7.31834e-13
0.0033272
-3.84459e-06
7.43792e-13
0.00333102
-3.82438e-06
7.57252e-13
0.00333483
-3.80414e-06
7.72569e-13
0.00333861
-3.78387e-06
7.87757e-13
0.00334237
-3.76356e-06
8.00472e-13
0.00334612
-3.74321e-06
8.08779e-13
0.00334984
-3.72283e-06
8.12588e-13
0.00335354
-3.70242e-06
8.13927e-13
0.00335722
-3.68198e-06
8.14227e-13
0.00336089
-3.66151e-06
8.13674e-13
0.00336453
-3.641e-06
8.11196e-13
0.00336815
-3.62047e-06
8.05087e-13
0.00337175
-3.59992e-06
7.94876e-13
0.00337533
-3.57933e-06
7.80585e-13
0.00337889
-3.55872e-06
7.62361e-13
0.00338242
-3.53809e-06
7.40785e-13
0.00338594
-3.51744e-06
7.16564e-13
0.00338944
-3.49676e-06
6.90712e-13
0.00339291
-3.47607e-06
6.63028e-13
0.00339637
-3.45535e-06
6.32315e-13
0.0033998
-3.43462e-06
5.98968e-13
0.00340322
-3.41388e-06
5.62178e-13
0.00340661
-3.39312e-06
5.21387e-13
0.00340998
-3.37235e-06
4.78662e-13
0.00341333
-3.35157e-06
4.36286e-13
0.00341667
-3.33078e-06
3.95974e-13
0.00341998
-3.30998e-06
3.56247e-13
0.00342326
-3.28918e-06
3.13892e-13
0.00342653
-3.26837e-06
2.6669e-13
0.00342978
-3.24756e-06
2.13048e-13
0.00343301
-3.22675e-06
1.5352e-13
0.00343621
-3.20594e-06
8.94496e-14
0.0034394
-3.18513e-06
2.55817e-14
0.00344256
-3.16432e-06
-3.56056e-14
0.00344571
-3.14352e-06
-9.73556e-14
0.00344883
-3.12273e-06
-1.63492e-13
0.00345193
-3.10194e-06
-2.36616e-13
0.00345501
-3.08117e-06
-3.15301e-13
0.00345807
-3.0604e-06
-3.92809e-13
0.00346111
-3.03965e-06
-4.61853e-13
0.00346413
-3.01892e-06
-5.27329e-13
0.00346713
-2.9982e-06
-5.86718e-13
0.00347011
-2.9775e-06
-6.46483e-13
0.00347306
-2.95682e-06
-7.07391e-13
0.003476
-2.93616e-06
-7.6539e-13
0.00347891
-2.91552e-06
-8.14973e-13
0.00348181
-2.89491e-06
-8.54806e-13
0.00348468
-2.87432e-06
-8.86185e-13
0.00348754
-2.85376e-06
-9.13013e-13
0.00349037
-2.83323e-06
-9.37785e-13
0.00349318
-2.81273e-06
-9.61115e-13
0.00349598
-2.79226e-06
-9.82182e-13
0.00349875
-2.77182e-06
-9.97385e-13
0.0035015
-2.75142e-06
-1.00322e-12
0.00350423
-2.73105e-06
-1.00262e-12
0.00350694
-2.71073e-06
-1.00354e-12
0.00350963
-2.69044e-06
-1.00888e-12
0.0035123
-2.67019e-06
-1.01564e-12
0.00351495
-2.64998e-06
-1.02098e-12
0.00351758
-2.62981e-06
-1.02577e-12
0.00352019
-2.60969e-06
-1.02919e-12
0.00352278
-2.58961e-06
-1.02303e-12
0.00352535
-2.56958e-06
-9.95285e-13
0.0035279
-2.54959e-06
-9.4812e-13
0.00353043
-2.52966e-06
-8.95986e-13
0.00353294
-2.50977e-06
-8.50389e-13
0.00353543
-2.48994e-06
-8.11799e-13
0.0035379
-2.47016e-06
-7.71333e-13
0.00354035
-2.45043e-06
-7.20525e-13
0.00354278
-2.43076e-06
-6.58202e-13
0.00354519
-2.41114e-06
-5.95305e-13
0.00354758
-2.39158e-06
-5.43027e-13
0.00354996
-2.37208e-06
-4.95068e-13
0.00355231
-2.35263e-06
-4.39305e-13
0.00355464
-2.33325e-06
-3.76416e-13
0.00355696
-2.31393e-06
-3.18013e-13
0.00355925
-2.29466e-06
-2.67704e-13
0.00356153
-2.27547e-06
-2.11865e-13
0.00356378
-2.25633e-06
-1.44116e-13
0.00356602
-2.23726e-06
-7.18788e-14
0.00356824
-2.21826e-06
-1.26982e-14
0.00357044
-2.19932e-06
3.70591e-14
0.00357262
-2.18045e-06
8.80513e-14
0.00357478
-2.16164e-06
1.3744e-13
0.00357692
-2.14291e-06
1.67038e-13
0.00357905
-2.12425e-06
1.71528e-13
0.00358115
-2.10565e-06
1.70232e-13
0.00358324
-2.08713e-06
1.77475e-13
0.00358531
-2.06868e-06
1.9342e-13
0.00358736
-2.05031e-06
2.04508e-13
0.00358939
-2.032e-06
2.13355e-13
0.0035914
-2.01377e-06
2.13527e-13
0.0035934
-1.99562e-06
1.99137e-13
0.00359538
-1.97754e-06
1.73894e-13
0.00359734
-1.95954e-06
1.42165e-13
0.00359928
-1.94162e-06
1.13413e-13
0.0036012
-1.92377e-06
9.52145e-14
0.00360311
-1.90601e-06
8.45011e-14
0.003605
-1.88832e-06
6.97862e-14
0.00360687
-1.87071e-06
3.84191e-14
0.00360872
-1.85318e-06
-2.39807e-15
0.00361056
-1.83573e-06
-3.84694e-14
0.00361237
-1.81836e-06
-6.21496e-14
0.00361417
-1.80108e-06
-8.43109e-14
0.00361596
-1.78388e-06
-1.1673e-13
0.00361773
-1.76676e-06
-1.63274e-13
0.00361948
-1.74972e-06
-2.2058e-13
0.00362121
-1.73277e-06
-2.81732e-13
0.00362292
-1.7159e-06
-3.41149e-13
0.00362462
-1.69912e-06
-3.91548e-13
0.00362631
-1.68242e-06
-4.33961e-13
0.00362797
-1.66581e-06
-4.83925e-13
0.00362962
-1.64929e-06
-5.45752e-13
0.00363125
-1.63285e-06
-5.94255e-13
0.00363287
-1.6165e-06
-6.13525e-13
0.00363447
-1.60024e-06
-6.15177e-13
0.00363605
-1.58406e-06
-6.20898e-13
0.00363762
-1.56797e-06
-6.29734e-13
0.00363917
-1.55197e-06
-6.28303e-13
0.00364071
-1.53606e-06
-6.12891e-13
0.00364223
-1.52024e-06
-5.82769e-13
0.00364374
-1.50451e-06
-5.61288e-13
0.00364522
-1.48887e-06
-5.61564e-13
0.0036467
-1.47332e-06
-5.62357e-13
0.00364816
-1.45786e-06
-5.54687e-13
0.0036496
-1.44249e-06
-5.43779e-13
0.00365102
-1.42721e-06
-5.41432e-13
0.00365244
-1.41202e-06
-5.33966e-13
0.00365383
-1.39692e-06
-4.99988e-13
0.00365522
-1.38192e-06
-4.53037e-13
0.00365658
-1.36701e-06
-4.21377e-13
0.00365793
-1.35219e-06
-4.0001e-13
0.00365927
-1.33746e-06
-3.67672e-13
0.0036606
-1.32283e-06
-3.28607e-13
0.0036619
-1.30828e-06
-2.95226e-13
0.0036632
-1.29384e-06
-2.72397e-13
0.00366448
-1.27948e-06
-2.3836e-13
0.00366574
-1.26522e-06
-2.00085e-13
0.00366699
-1.25105e-06
-1.94395e-13
0.00366823
-1.23698e-06
-2.12017e-13
0.00366945
-1.22299e-06
-2.26988e-13
0.00367066
-1.20911e-06
-2.22697e-13
0.00367186
-1.19532e-06
-2.23151e-13
0.00367304
-1.18162e-06
-2.44177e-13
0.00367421
-1.16801e-06
-2.59327e-13
0.00367536
-1.1545e-06
-2.49014e-13
0.0036765
-1.14109e-06
-2.35759e-13
0.00367763
-1.12777e-06
-2.37491e-13
0.00367874
-1.11454e-06
-2.60049e-13
0.00367985
-1.10141e-06
-2.89097e-13
0.00368093
-1.08838e-06
-2.93324e-13
0.00368201
-1.07544e-06
-2.81673e-13
0.00368307
-1.06259e-06
-2.68928e-13
0.00368412
-1.04984e-06
-2.43313e-13
0.00368516
-1.03718e-06
-2.15808e-13
0.00368618
-1.02462e-06
-2.06505e-13
0.0036872
-1.01215e-06
-2.06322e-13
0.0036882
-9.99784e-07
-2.16334e-13
0.00368918
-9.87507e-07
-2.10249e-13
0.00369016
-9.75326e-07
-1.73628e-13
0.00369112
-9.63239e-07
-1.50118e-13
0.00369207
-9.51247e-07
-1.52955e-13
0.00369301
-9.3935e-07
-1.67691e-13
0.00369394
-9.27548e-07
-1.60463e-13
0.00369486
-9.15841e-07
-1.17554e-13
0.00369576
-9.04228e-07
-7.21461e-14
0.00369665
-8.92709e-07
-2.602e-14
0.00369753
-8.81285e-07
1.53609e-14
0.0036984
-8.69956e-07
2.63712e-14
0.00369926
-8.5872e-07
4.06884e-15
0.00370011
-8.47579e-07
-4.84581e-15
0.00370095
-8.36532e-07
1.38496e-14
0.00370177
-8.25579e-07
3.92388e-14
0.00370259
-8.1472e-07
8.65357e-14
0.00370339
-8.03954e-07
1.65624e-13
0.00370418
-7.93282e-07
2.46756e-13
0.00370497
-7.82703e-07
2.8385e-13
0.00370574
-7.72217e-07
2.44993e-13
0.0037065
-7.61824e-07
2.19791e-13
0.00370725
-7.51525e-07
2.81387e-13
0.00370799
-7.41317e-07
3.57792e-13
0.00370873
-7.31203e-07
3.74675e-13
0.00370945
-7.2118e-07
3.77238e-13
0.00371016
-7.11249e-07
4.19766e-13
0.00371086
-7.01411e-07
4.09457e-13
0.00371155
-6.91664e-07
3.78125e-13
0.00371223
-6.82008e-07
3.90995e-13
0.00371291
-6.72444e-07
4.6859e-13
0.00371357
-6.6297e-07
5.44351e-13
0.00371422
-6.53587e-07
5.64702e-13
0.00371487
-6.44294e-07
5.40562e-13
0.0037155
-6.35092e-07
5.02889e-13
0.00371613
-6.25979e-07
4.4313e-13
0.00371674
-6.16956e-07
4.33144e-13
0.00371735
-6.08023e-07
4.79892e-13
0.00371795
-5.99178e-07
4.79483e-13
0.00371854
-5.90422e-07
4.59869e-13
0.00371912
-5.81754e-07
4.27836e-13
0.0037197
-5.73174e-07
3.90647e-13
0.00372026
-5.64682e-07
3.71554e-13
0.00372082
-5.56277e-07
3.21752e-13
0.00372137
-5.47959e-07
2.73716e-13
0.00372191
-5.39728e-07
2.78263e-13
0.00372244
-5.31583e-07
3.16379e-13
0.00372296
-5.23524e-07
3.99778e-13
0.00372348
-5.1555e-07
4.11744e-13
0.00372398
-5.07662e-07
3.20221e-13
0.00372448
-4.99858e-07
2.24425e-13
0.00372498
-4.92139e-07
1.9129e-13
0.00372546
-4.84503e-07
2.45151e-13
0.00372594
-4.76951e-07
2.71103e-13
0.00372641
-4.69482e-07
2.85098e-13
0.00372687
-4.62095e-07
2.81035e-13
0.00372732
-4.5479e-07
2.04419e-13
0.00372777
-4.47567e-07
1.92025e-13
0.00372821
-4.40424e-07
2.53383e-13
0.00372865
-4.33362e-07
2.90601e-13
0.00372907
-4.26379e-07
3.56248e-13
0.00372949
-4.19476e-07
3.384e-13
0.0037299
-4.12652e-07
2.57085e-13
0.00373031
-4.05905e-07
2.43038e-13
0.00373071
-3.99236e-07
2.55677e-13
0.0037311
-3.92643e-07
2.6945e-13
0.00373149
-3.86126e-07
3.11546e-13
0.00373187
-3.79685e-07
3.56579e-13
0.00373224
-3.73317e-07
3.16459e-13
0.00373261
-3.67024e-07
2.99743e-13
0.00373297
-3.60803e-07
3.10458e-13
0.00373332
-3.54654e-07
2.37064e-13
0.00373367
-3.48576e-07
2.37802e-13
0.00373401
-3.42568e-07
2.91951e-13
0.00373435
-3.36629e-07
2.60243e-13
0.00373468
-3.30757e-07
1.17753e-13
0.00373501
-3.24953e-07
-5.05377e-15
0.00373533
-3.19214e-07
-4.87733e-14
0.00373564
-3.1354e-07
-8.43619e-16
0.00373595
-3.07928e-07
-5.5212e-14
0.00373625
-3.02379e-07
-1.27975e-13
0.00373655
-2.9689e-07
-1.99636e-13
0.00373684
-2.9146e-07
-2.9412e-13
0.00373712
-2.86088e-07
-2.92667e-13
0.0037374
-2.80772e-07
-2.61489e-13
0.00373768
-2.75511e-07
-2.89279e-13
0.00373795
-2.70302e-07
-4.02504e-13
0.00373822
-2.65145e-07
-5.8551e-13
0.00373848
-2.60038e-07
-6.58624e-13
0.00373873
-2.54978e-07
-6.90827e-13
0.00373898
-2.49964e-07
-6.69732e-13
0.00373923
-2.44994e-07
-6.60689e-13
0.00373947
-2.40067e-07
-7.26051e-13
0.0037397
-2.3518e-07
-9.07451e-13
0.00373993
-2.30332e-07
-9.71934e-13
0.00374016
-2.25521e-07
-9.38686e-13
0.00374038
-2.20745e-07
-9.88192e-13
0.00374059
-2.16001e-07
-1.01666e-12
0.00374081
-2.11289e-07
-1.08173e-12
0.00374101
-2.06606e-07
-1.18047e-12
0.00374121
-2.01951e-07
-1.22637e-12
0.00374141
-1.97322e-07
-1.33422e-12
0.0037416
-1.92717e-07
-1.25901e-12
0.00374179
-1.88136e-07
-1.27459e-12
0.00374198
-1.83576e-07
-1.4582e-12
0.00374215
-1.79037e-07
-1.40809e-12
0.00374233
-1.74517e-07
-1.56805e-12
0.0037425
-1.70015e-07
-1.62288e-12
0.00374266
-1.65531e-07
-1.4967e-12
0.00374283
-1.61064e-07
-1.49419e-12
0.00374298
-1.56614e-07
-1.59849e-12
0.00374313
-1.52181e-07
-1.80131e-12
0.00374328
-1.47765e-07
-1.79849e-12
0.00374343
-1.43365e-07
-1.52159e-12
0.00374356
-1.38984e-07
-1.42523e-12
0.0037437
-1.34621e-07
-1.49509e-12
0.00374383
-1.30279e-07
-1.50354e-12
0.00374396
-1.25957e-07
-1.42651e-12
0.00374408
-1.21659e-07
-1.2686e-12
0.00374419
-1.17386e-07
-1.10515e-12
0.00374431
-1.13141e-07
-1.26928e-12
0.00374442
-1.08926e-07
-1.15688e-12
0.00374452
-1.04744e-07
-1.02668e-12
0.00374462
-1.00597e-07
-1.0309e-12
0.00374472
-9.64908e-08
-9.15445e-13
0.00374481
-9.24274e-08
-9.42649e-13
0.0037449
-8.84108e-08
-1.04472e-12
0.00374498
-8.44453e-08
-8.42162e-13
0.00374506
-8.05346e-08
-7.71774e-13
0.00374514
-7.66835e-08
-6.37444e-13
0.00374521
-7.28962e-08
-5.1068e-13
0.00374528
-6.91772e-08
-6.17286e-13
0.00374535
-6.55308e-08
-5.81729e-13
0.00374541
-6.19616e-08
-3.98947e-13
0.00374547
-5.8474e-08
-2.89748e-13
0.00374552
-5.50724e-08
-2.4941e-13
0.00374558
-5.1761e-08
-2.39647e-13
0.00374562
-4.85438e-08
-2.79829e-13
0.00374567
-4.54242e-08
-1.12413e-13
0.00374571
-4.24061e-08
-1.28416e-13
0.00374575
-3.94933e-08
-1.31982e-13
0.00374579
-3.66884e-08
-8.42605e-14
0.00374582
-3.39939e-08
-1.4935e-14
0.00374585
-3.14117e-08
1.53074e-14
0.00374588
-2.89441e-08
7.26547e-14
0.00374591
-2.65926e-08
1.56767e-13
0.00374593
-2.43579e-08
9.26254e-14
0.00374596
-2.22404e-08
5.27595e-14
0.00374598
-2.02403e-08
3.33847e-13
0.00374599
-1.83566e-08
3.55225e-13
0.00374601
-1.65889e-08
2.90918e-13
0.00374603
-1.49355e-08
1.52103e-13
0.00374604
-1.33946e-08
4.40849e-13
0.00374605
-1.19636e-08
4.70617e-13
0.00374606
-1.06403e-08
4.89331e-13
0.00374607
-9.42109e-09
3.57293e-13
0.00374608
-8.30245e-09
4.29719e-13
0.00374609
-7.2807e-09
5.98542e-13
0.00374609
-6.35159e-09
5.19332e-13
0.0037461
-5.51098e-09
4.87445e-13
0.0037461
-4.75391e-09
4.43161e-13
0.00374611
-4.07579e-09
5.35852e-13
0.00374611
-3.47189e-09
5.83619e-13
0.00374611
-2.93688e-09
2.39483e-13
0.00374612
-2.46611e-09
3.35675e-13
0.00374612
-2.05425e-09
3.74122e-13
0.00374612
-1.69651e-09
3.35438e-13
0.00374612
-1.38854e-09
5.06305e-13
0.00374612
-1.12481e-09
2.78212e-13
0.00374612
-9.01159e-10
3.28124e-13
0.00374612
-7.13233e-10
2.74294e-13
0.00374612
-5.5708e-10
3.21665e-13
0.00374613
-4.28719e-10
3.70168e-13
0.00374613
-3.24086e-10
1.97373e-13
0.00374613
-2.40289e-10
2.363e-13
0.00374613
-1.7419e-10
1.40914e-13
0.00374613
-1.23269e-10
2.29466e-13
0.00374613
-8.45236e-11
2.01565e-13
0.00374613
-5.57527e-11
3.23825e-15
0.00374613
-3.56402e-11
5.84079e-14
0.00374613
-2.1825e-11
-1.79929e-14
0.00374613
-1.32668e-11
6.1558e-14
0.00374613
-8.20234e-12
-4.61082e-14
0.00374613
-6.27738e-12
6.44613e-14
0.00374613
-6.0689e-12
-5.64698e-14
0.00374613
-7.36971e-12
-3.7967e-15
0.00374613
-9.45086e-12
7.27805e-14
0.00374613
-1.174e-11
-4.16695e-14
0.00374613
-1.43954e-11
8.89943e-14
0.00374613
-1.67176e-11
-4.42811e-14
0.00374613
-1.87857e-11
-1.20359e-13
0.00374613
-2.06737e-11
-1.39582e-14
0.00374613
-2.21148e-11
6.77968e-14
0.00374613
-2.31116e-11
1.05243e-14
0.00374613
-2.4085e-11
9.58591e-14
0.00374613
-2.45751e-11
-5.26087e-14
0.00374613
-2.47343e-11
-1.59445e-13
0.00374613
-2.4806e-11
-5.78897e-14
0.00374613
-2.4688e-11
-1.05836e-13
0.00374613
-2.44473e-11
-2.19145e-13
0.00374613
-2.4075e-11
-1.72249e-13
0.00374613
-2.37068e-11
-2.57475e-13
0.00374613
-2.34934e-11
-1.12143e-13
0.00374613
-2.30215e-11
-2.11965e-13
0.00374613
-2.2526e-11
-2.1589e-13
0.00374613
-2.22384e-11
-1.58057e-13
0.00374613
-2.19432e-11
6.29291e-15
0.00374613
-2.15403e-11
7.08208e-14
0.00374613
-2.12461e-11
3.46193e-15
0.00374613
-2.08864e-11
1.17965e-14
0.00374613
-2.05895e-11
8.88903e-14
0.00374613
-2.05731e-11
3.30771e-13
0.00374613
-2.00225e-11
1.54197e-15
0.00374613
-1.98747e-11
1.45212e-13
0.00374613
-1.94571e-11
5.03982e-14
0.00374613
-1.93089e-11
1.40055e-13
0.00374613
-1.89535e-11
1.4676e-14
0.00374613
-1.86869e-11
8.49131e-14
0.00374613
-1.83828e-11
-3.56707e-14
0.00374613
-1.828e-11
1.0866e-13
0.00374613
-1.78583e-11
-4.4583e-14
0.00374613
-1.7536e-11
-4.27686e-14
0.00374613
-1.74353e-11
4.76492e-14
0.00374613
-1.74396e-11
1.96412e-13
0.00374613
-1.69405e-11
-1.34165e-13
0.00374613
-1.68969e-11
1.46217e-13
0.00374613
-1.63708e-11
-8.21142e-14
0.00374613
-1.63809e-11
8.76294e-15
0.00374613
-1.62213e-11
1.3432e-13
0.00374613
-1.58733e-11
6.22594e-14
0.00374613
-1.60989e-11
4.05136e-13
0.00374613
-1.56031e-11
1.28157e-13
0.00374613
-1.54685e-11
1.70839e-13
0.00374613
-1.52732e-11
2.81862e-14
0.00374613
-1.52334e-11
1.96575e-13
0.00374613
-1.48826e-11
1.94668e-13
0.00374613
-1.48764e-11
2.6196e-13
0.00374613
-1.46332e-11
2.08372e-13
0.00374613
-1.44319e-11
1.48996e-13
0.00374613
-1.42969e-11
1.28341e-13
0.00374613
-1.39296e-11
-8.61562e-14
0.00374613
-1.39032e-11
2.05054e-14
0.00374613
-1.35091e-11
-1.25207e-13
0.00374613
-1.35067e-11
7.55422e-14
0.00374613
-1.33431e-11
3.97338e-14
0.00374613
-1.32338e-11
1.50818e-13
0.00374613
-1.28919e-11
-1.74735e-13
0.00374613
-1.28275e-11
-1.1169e-13
0.00374613
-1.26675e-11
-1.63398e-13
0.00374613
-1.26194e-11
-3.20542e-14
0.00374613
-1.2569e-11
2.87122e-13
0.00374613
-1.20551e-11
-2.84931e-13
0.00374613
-1.21718e-11
2.63841e-13
0.00374613
-1.16242e-11
-9.61474e-14
0.00374613
-1.1568e-11
1.88431e-13
0.00374613
-1.15814e-11
2.80423e-13
0.00374613
-1.06881e-11
-7.18106e-14
0.00374613
-1.06021e-11
3.2274e-13
0.00374613
-9.47346e-12
-2.33586e-13
0.00374613
-8.55309e-12
1.62191e-14
0.00374613
-6.59559e-12
1.78774e-13
0.00374613
-4.19879e-12
1.63413e-13
0.00374613
-1.67956e-13
-4.67824e-14
3.64686e-12
4.81773e-13
0.00240039
-1.40666e-07
0.0024006
-4.25031e-07
0.00240096
-7.12898e-07
0.00240145
-1.00369e-06
0.0024021
-1.29699e-06
0.00240288
-1.59239e-06
0.00240382
-1.88945e-06
0.0024049
-2.18774e-06
0.00240613
-2.48681e-06
0.00240751
-2.7862e-06
0.00240904
-3.08547e-06
0.00241071
-3.38416e-06
0.00241254
-3.68181e-06
0.00241451
-3.97798e-06
0.00241662
-4.27222e-06
0.00241888
-4.5641e-06
0.00242128
-4.85319e-06
0.00242382
-5.13907e-06
0.0024265
-5.42135e-06
0.00242932
-5.69963e-06
0.00243227
-5.97354e-06
0.00243536
-6.24274e-06
0.00243857
-6.50689e-06
0.00244192
-6.76567e-06
0.00244539
-7.01879e-06
0.00244897
-7.26599e-06
0.00245268
-7.50702e-06
0.00245651
-7.74165e-06
0.00246044
-7.96967e-06
0.00246448
-8.19092e-06
0.00246863
-8.40523e-06
0.00247288
-8.61247e-06
0.00247723
-8.81254e-06
0.00248167
-9.00535e-06
0.0024862
-9.19083e-06
0.00249082
-9.36893e-06
0.00249553
-9.53964e-06
0.00250031
-9.70295e-06
0.00250517
-9.85888e-06
0.0025101
-1.00075e-05
0.0025151
-1.01487e-05
0.00252016
-1.02828e-05
0.00252529
-1.04097e-05
0.00253047
-1.05295e-05
0.00253571
-1.06423e-05
0.002541
-1.07484e-05
0.00254634
-1.08477e-05
0.00255173
-1.09405e-05
0.00255715
-1.10268e-05
0.00256262
-1.11069e-05
0.00256812
-1.11808e-05
0.00257365
-1.12489e-05
0.00257921
-1.13111e-05
0.0025848
-1.13678e-05
0.00259041
-1.1419e-05
0.00259605
-1.14651e-05
0.0026017
-1.1506e-05
0.00260738
-1.15421e-05
0.00261306
-1.15735e-05
0.00261877
-1.16004e-05
0.00262448
-1.1623e-05
0.0026302
-1.16414e-05
0.00263592
-1.16558e-05
0.00264165
-1.16665e-05
0.00264739
-1.16735e-05
0.00265312
-1.16771e-05
0.00265885
-1.16774e-05
0.00266459
-1.16746e-05
0.00267032
-1.16688e-05
0.00267604
-1.16602e-05
0.00268176
-1.1649e-05
0.00268747
-1.16352e-05
0.00269318
-1.16191e-05
0.00269887
-1.16007e-05
0.00270456
-1.15803e-05
0.00271023
-1.15578e-05
0.00271589
-1.15335e-05
0.00272154
-1.15075e-05
0.00272717
-1.14799e-05
0.00273279
-1.14507e-05
0.00273839
-1.14202e-05
0.00274398
-1.13883e-05
0.00274955
-1.13552e-05
0.00275511
-1.1321e-05
0.00276064
-1.12858e-05
0.00276616
-1.12497e-05
0.00277166
-1.12126e-05
0.00277714
-1.11748e-05
0.0027826
-1.11363e-05
0.00278804
-1.10971e-05
0.00279347
-1.10573e-05
0.00279887
-1.1017e-05
0.00280425
-1.09762e-05
0.00280961
-1.0935e-05
0.00281495
-1.08934e-05
0.00282027
-1.08514e-05
0.00282557
-1.08092e-05
0.00283084
-1.07668e-05
0.0028361
-1.07241e-05
0.00284133
-1.06813e-05
0.00284654
-1.06384e-05
0.00285173
-1.05953e-05
0.0028569
-1.05522e-05
0.00286205
-1.0509e-05
0.00286717
-1.04658e-05
0.00287227
-1.04225e-05
0.00287735
-1.03793e-05
0.00288241
-1.03361e-05
0.00288745
-1.0293e-05
0.00289246
-1.02499e-05
0.00289746
-1.02069e-05
0.00290243
-1.0164e-05
0.00290738
-1.01211e-05
0.00291231
-1.00784e-05
0.00291721
-1.00358e-05
0.0029221
-9.99328e-06
0.00292696
-9.9509e-06
0.0029318
-9.90864e-06
0.00293662
-9.86651e-06
0.00294142
-9.8245e-06
0.0029462
-9.78263e-06
0.00295096
-9.74089e-06
0.00295569
-9.69928e-06
0.0029604
-9.6578e-06
0.0029651
-9.61645e-06
0.00296977
-9.57523e-06
0.00297442
-9.53414e-06
0.00297905
-9.49316e-06
0.00298366
-9.45231e-06
0.00298824
-9.41157e-06
0.00299281
-9.37095e-06
0.00299736
-9.33043e-06
0.00300188
-9.29001e-06
0.00300638
-9.2497e-06
0.00301087
-9.20948e-06
0.00301533
-9.16934e-06
0.00301977
-9.12929e-06
0.0030242
-9.08932e-06
0.0030286
-9.04942e-06
0.00303298
-9.00959e-06
0.00303734
-8.96983e-06
0.00304168
-8.93012e-06
0.003046
-8.89046e-06
0.0030503
-8.85085e-06
0.00305458
-8.81129e-06
0.00305884
-8.77176e-06
0.00306308
-8.73226e-06
0.0030673
-8.69279e-06
0.0030715
-8.65334e-06
0.00307568
-8.6139e-06
0.00307984
-8.57449e-06
0.00308398
-8.53508e-06
0.0030881
-8.49567e-06
0.0030922
-8.45627e-06
0.00309627
-8.41686e-06
0.00310033
-8.37744e-06
0.00310437
-8.33802e-06
0.00310839
-8.29858e-06
0.00311239
-8.25912e-06
0.00311637
-8.21965e-06
0.00312033
-8.18015e-06
0.00312427
-8.14062e-06
0.00312818
-8.10107e-06
0.00313208
-8.06149e-06
0.00313596
-8.02187e-06
0.00313982
-7.98223e-06
0.00314366
-7.94254e-06
0.00314748
-7.90282e-06
0.00315128
-7.86306e-06
0.00315505
-7.82327e-06
0.00315881
-7.78343e-06
0.00316255
-7.74355e-06
0.00316627
-7.70363e-06
0.00316997
-7.66367e-06
0.00317365
-7.62367e-06
0.00317731
-7.58362e-06
0.00318095
-7.54353e-06
0.00318456
-7.50341e-06
0.00318816
-7.46324e-06
0.00319174
-7.42303e-06
0.0031953
-7.38277e-06
0.00319884
-7.34249e-06
0.00320236
-7.30216e-06
0.00320585
-7.26179e-06
0.00320933
-7.22139e-06
0.00321279
-7.18096e-06
0.00321623
-7.14049e-06
0.00321965
-7.09999e-06
0.00322304
-7.05946e-06
0.00322642
-7.0189e-06
0.00322978
-6.97831e-06
0.00323312
-6.93771e-06
0.00323644
-6.89707e-06
0.00323973
-6.85642e-06
0.00324301
-6.81575e-06
0.00324627
-6.77506e-06
0.00324951
-6.73436e-06
0.00325272
-6.69365e-06
0.00325592
-6.65293e-06
0.0032591
-6.6122e-06
0.00326226
-6.57147e-06
0.00326539
-6.53073e-06
0.00326851
-6.49e-06
0.00327161
-6.44927e-06
0.00327469
-6.40854e-06
0.00327775
-6.36782e-06
0.00328078
-6.32712e-06
0.0032838
-6.28643e-06
0.0032868
-6.24575e-06
0.00328978
-6.2051e-06
0.00329274
-6.16446e-06
0.00329567
-6.12385e-06
0.00329859
-6.08327e-06
0.00330149
-6.04271e-06
0.00330437
-6.00219e-06
0.00330723
-5.96171e-06
0.00331007
-5.92126e-06
0.00331289
-5.88085e-06
0.00331569
-5.84049e-06
0.00331847
-5.80017e-06
0.00332124
-5.75991e-06
0.00332398
-5.71969e-06
0.0033267
-5.67953e-06
0.0033294
-5.63942e-06
0.00333209
-5.59937e-06
0.00333475
-5.55939e-06
0.0033374
-5.51947e-06
0.00334002
-5.47961e-06
0.00334263
-5.43983e-06
0.00334522
-5.40012e-06
0.00334779
-5.36048e-06
0.00335034
-5.32092e-06
0.00335287
-5.28144e-06
0.00335538
-5.24203e-06
0.00335787
-5.20272e-06
0.00336034
-5.16349e-06
0.0033628
-5.12434e-06
0.00336523
-5.08529e-06
0.00336765
-5.04633e-06
0.00337005
-5.00747e-06
0.00337242
-4.9687e-06
0.00337478
-4.93003e-06
0.00337713
-4.89146e-06
0.00337945
-4.853e-06
0.00338175
-4.81464e-06
0.00338404
-4.77639e-06
0.00338631
-4.73825e-06
0.00338856
-4.70022e-06
0.00339079
-4.6623e-06
0.003393
-4.6245e-06
0.0033952
-4.58681e-06
0.00339738
-4.54925e-06
0.00339954
-4.5118e-06
0.00340168
-4.47448e-06
0.0034038
-4.43728e-06
0.00340591
-4.4002e-06
0.00340799
-4.36325e-06
0.00341006
-4.32643e-06
0.00341212
-4.28974e-06
0.00341415
-4.25319e-06
0.00341617
-4.21676e-06
0.00341817
-4.18047e-06
0.00342015
-4.14432e-06
0.00342212
-4.1083e-06
0.00342406
-4.07243e-06
0.003426
-4.03669e-06
0.00342791
-4.0011e-06
0.00342981
-3.96565e-06
0.00343169
-3.93034e-06
0.00343355
-3.89518e-06
0.0034354
-3.86016e-06
0.00343723
-3.8253e-06
0.00343904
-3.79058e-06
0.00344084
-3.75601e-06
0.00344262
-3.7216e-06
0.00344438
-3.68733e-06
0.00344613
-3.65323e-06
0.00344786
-3.61927e-06
0.00344957
-3.58547e-06
0.00345127
-3.55183e-06
0.00345295
-3.51835e-06
0.00345462
-3.48502e-06
0.00345627
-3.45186e-06
0.00345791
-3.41885e-06
0.00345952
-3.38601e-06
0.00346113
-3.35333e-06
0.00346272
-3.32081e-06
0.00346429
-3.28845e-06
0.00346585
-3.25626e-06
0.00346739
-3.22424e-06
0.00346891
-3.19238e-06
0.00347043
-3.16069e-06
0.00347192
-3.12917e-06
0.0034734
-3.09782e-06
0.00347487
-3.06663e-06
0.00347632
-3.03562e-06
0.00347776
-3.00477e-06
0.00347918
-2.9741e-06
0.00348059
-2.9436e-06
0.00348198
-2.91327e-06
0.00348336
-2.88311e-06
0.00348472
-2.85313e-06
0.00348607
-2.82332e-06
0.00348741
-2.79368e-06
0.00348873
-2.76422e-06
0.00349004
-2.73494e-06
0.00349133
-2.70583e-06
0.00349261
-2.6769e-06
0.00349388
-2.64814e-06
0.00349513
-2.61957e-06
0.00349637
-2.59116e-06
0.0034976
-2.56294e-06
0.00349881
-2.5349e-06
0.00350001
-2.50703e-06
0.00350119
-2.47934e-06
0.00350237
-2.45184e-06
0.00350352
-2.42451e-06
0.00350467
-2.39736e-06
0.0035058
-2.37039e-06