/*--------------------------------*- C++ -*----------------------------------*\
  =========                 |
  \\      /  F ield         | OpenFOAM: The Open Source CFD Toolbox
   \\    /   O peration     | Website:  https://openfoam.org
    \\  /    A nd           | Version:  7
     \\/     M anipulation  |
\*---------------------------------------------------------------------------*/
FoamFile
{
    version     2.0;
    format      ascii;
    class       volVectorField;
    location    "8";
    object      U;
}
// * * * * * * * * * * * * * * * * * * * * * * * * * * * * * * * * * * * * * //

dimensions      [0 1 -1 0 0 0 0];

internalField   nonuniform List<vector> 
48000
(
(1.00001 -5.53418e-05 0)
(1.00006 -0.000166425 0)
(1.00017 -0.000277963 0)
(1.00034 -0.000389781 0)
(1.00058 -0.000501716 0)
(1.00087 -0.000613608 0)
(1.00122 -0.000725291 0)
(1.00163 -0.000836599 0)
(1.0021 -0.000947367 0)
(1.00264 -0.00105743 0)
(1.00323 -0.00116662 0)
(1.00388 -0.00127479 0)
(1.00459 -0.00138176 0)
(1.00537 -0.00148739 0)
(1.0062 -0.00159152 0)
(1.00709 -0.001694 0)
(1.00805 -0.0017947 0)
(1.00905 -0.00189349 0)
(1.01012 -0.00199022 0)
(1.01125 -0.00208479 0)
(1.01243 -0.00217707 0)
(1.01366 -0.00226697 0)
(1.01495 -0.00235438 0)
(1.01629 -0.00243921 0)
(1.01769 -0.00252139 0)
(1.01913 -0.00260084 0)
(1.02063 -0.0026775 0)
(1.02217 -0.00275132 0)
(1.02376 -0.00282224 0)
(1.0254 -0.00289025 0)
(1.02708 -0.00295529 0)
(1.0288 -0.00301737 0)
(1.03056 -0.00307646 0)
(1.03237 -0.00313256 0)
(1.03421 -0.00318569 0)
(1.03609 -0.00323585 0)
(1.03801 -0.00328305 0)
(1.03996 -0.00332734 0)
(1.04194 -0.00336873 0)
(1.04396 -0.00340727 0)
(1.046 -0.00344301 0)
(1.04808 -0.00347598 0)
(1.05017 -0.00350625 0)
(1.0523 -0.00353386 0)
(1.05445 -0.00355889 0)
(1.05662 -0.0035814 0)
(1.05881 -0.00360145 0)
(1.06102 -0.00361911 0)
(1.06325 -0.00363446 0)
(1.0655 -0.00364757 0)
(1.06777 -0.00365852 0)
(1.07005 -0.00366738 0)
(1.07234 -0.00367422 0)
(1.07464 -0.00367914 0)
(1.07696 -0.0036822 0)
(1.07928 -0.00368348 0)
(1.08162 -0.00368306 0)
(1.08396 -0.00368101 0)
(1.08631 -0.00367742 0)
(1.08867 -0.00367236 0)
(1.09103 -0.0036659 0)
(1.09339 -0.00365811 0)
(1.09576 -0.00364906 0)
(1.09814 -0.00363883 0)
(1.10051 -0.00362749 0)
(1.10288 -0.00361509 0)
(1.10526 -0.0036017 0)
(1.10764 -0.00358739 0)
(1.11001 -0.00357222 0)
(1.11238 -0.00355624 0)
(1.11476 -0.00353951 0)
(1.11713 -0.00352208 0)
(1.11949 -0.00350401 0)
(1.12186 -0.00348535 0)
(1.12421 -0.00346615 0)
(1.12657 -0.00344644 0)
(1.12892 -0.00342629 0)
(1.13126 -0.00340572 0)
(1.1336 -0.00338478 0)
(1.13594 -0.00336351 0)
(1.13827 -0.00334194 0)
(1.14059 -0.00332011 0)
(1.14291 -0.00329805 0)
(1.14521 -0.00327579 0)
(1.14752 -0.00325336 0)
(1.14981 -0.00323079 0)
(1.1521 -0.00320811 0)
(1.15438 -0.00318533 0)
(1.15665 -0.00316248 0)
(1.15892 -0.00313959 0)
(1.16117 -0.00311667 0)
(1.16342 -0.00309374 0)
(1.16566 -0.00307082 0)
(1.1679 -0.00304792 0)
(1.17012 -0.00302506 0)
(1.17234 -0.00300226 0)
(1.17454 -0.00297952 0)
(1.17674 -0.00295686 0)
(1.17893 -0.00293429 0)
(1.18112 -0.00291182 0)
(1.18329 -0.00288945 0)
(1.18545 -0.00286719 0)
(1.18761 -0.00284506 0)
(1.18976 -0.00282305 0)
(1.1919 -0.00280118 0)
(1.19403 -0.00277944 0)
(1.19615 -0.00275785 0)
(1.19827 -0.0027364 0)
(1.20037 -0.0027151 0)
(1.20247 -0.00269395 0)
(1.20456 -0.00267296 0)
(1.20664 -0.00265212 0)
(1.20871 -0.00263144 0)
(1.21077 -0.00261091 0)
(1.21283 -0.00259054 0)
(1.21487 -0.00257033 0)
(1.21691 -0.00255028 0)
(1.21894 -0.00253038 0)
(1.22096 -0.00251064 0)
(1.22297 -0.00249105 0)
(1.22498 -0.00247161 0)
(1.22698 -0.00245233 0)
(1.22897 -0.0024332 0)
(1.23095 -0.00241422 0)
(1.23292 -0.00239538 0)
(1.23488 -0.00237669 0)
(1.23684 -0.00235814 0)
(1.23879 -0.00233973 0)
(1.24073 -0.00232146 0)
(1.24266 -0.00230332 0)
(1.24459 -0.00228532 0)
(1.2465 -0.00226745 0)
(1.24841 -0.00224971 0)
(1.25031 -0.00223209 0)
(1.2522 -0.0022146 0)
(1.25409 -0.00219722 0)
(1.25597 -0.00217997 0)
(1.25784 -0.00216283 0)
(1.2597 -0.00214581 0)
(1.26155 -0.00212889 0)
(1.2634 -0.00211209 0)
(1.26524 -0.00209539 0)
(1.26707 -0.00207879 0)
(1.26889 -0.0020623 0)
(1.27071 -0.00204591 0)
(1.27251 -0.00202962 0)
(1.27431 -0.00201342 0)
(1.27611 -0.00199731 0)
(1.27789 -0.0019813 0)
(1.27967 -0.00196537 0)
(1.28144 -0.00194954 0)
(1.2832 -0.00193379 0)
(1.28495 -0.00191813 0)
(1.2867 -0.00190255 0)
(1.28844 -0.00188705 0)
(1.29017 -0.00187163 0)
(1.29189 -0.00185629 0)
(1.2936 -0.00184103 0)
(1.29531 -0.00182584 0)
(1.29701 -0.00181074 0)
(1.2987 -0.0017957 0)
(1.30038 -0.00178074 0)
(1.30206 -0.00176585 0)
(1.30373 -0.00175103 0)
(1.30539 -0.00173629 0)
(1.30704 -0.00172161 0)
(1.30869 -0.001707 0)
(1.31032 -0.00169246 0)
(1.31195 -0.00167799 0)
(1.31357 -0.00166359 0)
(1.31518 -0.00164926 0)
(1.31679 -0.00163499 0)
(1.31839 -0.00162078 0)
(1.31998 -0.00160665 0)
(1.32156 -0.00159258 0)
(1.32313 -0.00157857 0)
(1.3247 -0.00156463 0)
(1.32625 -0.00155076 0)
(1.3278 -0.00153695 0)
(1.32934 -0.0015232 0)
(1.33088 -0.00150953 0)
(1.3324 -0.00149591 0)
(1.33392 -0.00148236 0)
(1.33543 -0.00146888 0)
(1.33693 -0.00145546 0)
(1.33842 -0.00144211 0)
(1.3399 -0.00142882 0)
(1.34138 -0.00141559 0)
(1.34285 -0.00140244 0)
(1.34431 -0.00138935 0)
(1.34576 -0.00137632 0)
(1.3472 -0.00136336 0)
(1.34864 -0.00135047 0)
(1.35006 -0.00133764 0)
(1.35148 -0.00132488 0)
(1.35289 -0.00131219 0)
(1.35429 -0.00129957 0)
(1.35569 -0.00128701 0)
(1.35707 -0.00127452 0)
(1.35845 -0.0012621 0)
(1.35982 -0.00124974 0)
(1.36118 -0.00123746 0)
(1.36253 -0.00122525 0)
(1.36388 -0.0012131 0)
(1.36521 -0.00120102 0)
(1.36654 -0.00118902 0)
(1.36786 -0.00117708 0)
(1.36917 -0.00116521 0)
(1.37047 -0.00115342 0)
(1.37176 -0.00114169 0)
(1.37305 -0.00113004 0)
(1.37433 -0.00111846 0)
(1.3756 -0.00110695 0)
(1.37686 -0.00109551 0)
(1.37811 -0.00108414 0)
(1.37935 -0.00107285 0)
(1.38059 -0.00106162 0)
(1.38182 -0.00105047 0)
(1.38304 -0.0010394 0)
(1.38425 -0.00102839 0)
(1.38545 -0.00101746 0)
(1.38665 -0.0010066 0)
(1.38783 -0.000995816 0)
(1.38901 -0.000985105 0)
(1.39018 -0.000974467 0)
(1.39134 -0.000963903 0)
(1.39249 -0.000953413 0)
(1.39364 -0.000942997 0)
(1.39478 -0.000932655 0)
(1.3959 -0.000922386 0)
(1.39702 -0.000912192 0)
(1.39814 -0.000902073 0)
(1.39924 -0.000892027 0)
(1.40034 -0.000882055 0)
(1.40142 -0.000872158 0)
(1.4025 -0.000862335 0)
(1.40358 -0.000852586 0)
(1.40464 -0.000842912 0)
(1.40569 -0.000833311 0)
(1.40674 -0.000823785 0)
(1.40778 -0.000814333 0)
(1.40881 -0.000804955 0)
(1.40983 -0.000795651 0)
(1.41085 -0.00078642 0)
(1.41186 -0.000777264 0)
(1.41286 -0.000768181 0)
(1.41385 -0.000759171 0)
(1.41483 -0.000750235 0)
(1.41581 -0.000741373 0)
(1.41678 -0.000732583 0)
(1.41774 -0.000723867 0)
(1.41869 -0.000715223 0)
(1.41963 -0.000706652 0)
(1.42057 -0.000698154 0)
(1.4215 -0.000689728 0)
(1.42242 -0.000681374 0)
(1.42333 -0.000673092 0)
(1.42424 -0.000664882 0)
(1.42514 -0.000656743 0)
(1.42603 -0.000648676 0)
(1.42691 -0.00064068 0)
(1.42778 -0.000632755 0)
(1.42865 -0.0006249 0)
(1.42951 -0.000617116 0)
(1.43037 -0.000609402 0)
(1.43121 -0.000601758 0)
(1.43205 -0.000594183 0)
(1.43288 -0.000586678 0)
(1.4337 -0.000579242 0)
(1.43452 -0.000571875 0)
(1.43533 -0.000564576 0)
(1.43613 -0.000557346 0)
(1.43692 -0.000550183 0)
(1.43771 -0.000543088 0)
(1.43849 -0.000536061 0)
(1.43926 -0.0005291 0)
(1.44003 -0.000522207 0)
(1.44079 -0.00051538 0)
(1.44154 -0.000508618 0)
(1.44228 -0.000501923 0)
(1.44302 -0.000495293 0)
(1.44375 -0.000488728 0)
(1.44447 -0.000482228 0)
(1.44519 -0.000475793 0)
(1.4459 -0.000469422 0)
(1.4466 -0.000463114 0)
(1.4473 -0.00045687 0)
(1.44799 -0.000450689 0)
(1.44867 -0.000444571 0)
(1.44935 -0.000438515 0)
(1.45002 -0.000432521 0)
(1.45068 -0.000426589 0)
(1.45133 -0.000420719 0)
(1.45198 -0.000414909 0)
(1.45263 -0.00040916 0)
(1.45326 -0.000403471 0)
(1.45389 -0.000397843 0)
(1.45452 -0.000392273 0)
(1.45513 -0.000386763 0)
(1.45575 -0.000381312 0)
(1.45635 -0.000375919 0)
(1.45695 -0.000370584 0)
(1.45754 -0.000365307 0)
(1.45813 -0.000360087 0)
(1.45871 -0.000354924 0)
(1.45928 -0.000349818 0)
(1.45985 -0.000344768 0)
(1.46041 -0.000339774 0)
(1.46096 -0.000334835 0)
(1.46151 -0.000329951 0)
(1.46206 -0.000325122 0)
(1.46259 -0.000320347 0)
(1.46313 -0.000315627 0)
(1.46365 -0.000310959 0)
(1.46417 -0.000306345 0)
(1.46469 -0.000301784 0)
(1.4652 -0.000297275 0)
(1.4657 -0.000292818 0)
(1.4662 -0.000288413 0)
(1.46669 -0.000284059 0)
(1.46717 -0.000279756 0)
(1.46765 -0.000275504 0)
(1.46813 -0.000271301 0)
(1.4686 -0.000267149 0)
(1.46906 -0.000263045 0)
(1.46952 -0.000258991 0)
(1.46998 -0.000254986 0)
(1.47042 -0.000251028 0)
(1.47087 -0.000247119 0)
(1.4713 -0.000243257 0)
(1.47174 -0.000239442 0)
(1.47216 -0.000235674 0)
(1.47259 -0.000231952 0)
(1.473 -0.000228276 0)
(1.47342 -0.000224646 0)
(1.47382 -0.000221061 0)
(1.47422 -0.000217521 0)
(1.47462 -0.000214025 0)
(1.47501 -0.000210574 0)
(1.4754 -0.000207166 0)
(1.47578 -0.000203802 0)
(1.47616 -0.00020048 0)
(1.47654 -0.000197201 0)
(1.4769 -0.000193965 0)
(1.47727 -0.00019077 0)
(1.47763 -0.000187617 0)
(1.47798 -0.000184505 0)
(1.47833 -0.000181434 0)
(1.47868 -0.000178404 0)
(1.47902 -0.000175413 0)
(1.47935 -0.000172462 0)
(1.47969 -0.000169551 0)
(1.48001 -0.000166678 0)
(1.48034 -0.000163844 0)
(1.48066 -0.000161049 0)
(1.48097 -0.000158291 0)
(1.48128 -0.000155571 0)
(1.48159 -0.000152888 0)
(1.48189 -0.000150242 0)
(1.48219 -0.000147633 0)
(1.48249 -0.000145059 0)
(1.48278 -0.000142522 0)
(1.48306 -0.00014002 0)
(1.48334 -0.000137553 0)
(1.48362 -0.000135121 0)
(1.4839 -0.000132723 0)
(1.48417 -0.000130359 0)
(1.48443 -0.000128029 0)
(1.4847 -0.000125733 0)
(1.48496 -0.000123469 0)
(1.48521 -0.000121239 0)
(1.48547 -0.00011904 0)
(1.48571 -0.000116874 0)
(1.48596 -0.00011474 0)
(1.4862 -0.000112636 0)
(1.48644 -0.000110564 0)
(1.48667 -0.000108523 0)
(1.4869 -0.000106512 0)
(1.48713 -0.000104531 0)
(1.48735 -0.00010258 0)
(1.48757 -0.000100658 0)
(1.48779 -9.87657e-05 0)
(1.48801 -9.69018e-05 0)
(1.48822 -9.50664e-05 0)
(1.48842 -9.32592e-05 0)
(1.48863 -9.14798e-05 0)
(1.48883 -8.97278e-05 0)
(1.48903 -8.8003e-05 0)
(1.48922 -8.63051e-05 0)
(1.48942 -8.46337e-05 0)
(1.48961 -8.29885e-05 0)
(1.48979 -8.13692e-05 0)
(1.48997 -7.97755e-05 0)
(1.49016 -7.82071e-05 0)
(1.49033 -7.66636e-05 0)
(1.49051 -7.51448e-05 0)
(1.49068 -7.36503e-05 0)
(1.49085 -7.21798e-05 0)
(1.49101 -7.07329e-05 0)
(1.49118 -6.93095e-05 0)
(1.49134 -6.79091e-05 0)
(1.4915 -6.65313e-05 0)
(1.49165 -6.5176e-05 0)
(1.49181 -6.38427e-05 0)
(1.49196 -6.25312e-05 0)
(1.4921 -6.12411e-05 0)
(1.49225 -5.99721e-05 0)
(1.49239 -5.87238e-05 0)
(1.49253 -5.74959e-05 0)
(1.49267 -5.6288e-05 0)
(1.49281 -5.50999e-05 0)
(1.49294 -5.39312e-05 0)
(1.49307 -5.27814e-05 0)
(1.4932 -5.16503e-05 0)
(1.49333 -5.05375e-05 0)
(1.49345 -4.94427e-05 0)
(1.49357 -4.83654e-05 0)
(1.49369 -4.73053e-05 0)
(1.49381 -4.6262e-05 0)
(1.49393 -4.52351e-05 0)
(1.49404 -4.42244e-05 0)
(1.49415 -4.32292e-05 0)
(1.49426 -4.22494e-05 0)
(1.49437 -4.12844e-05 0)
(1.49447 -4.03339e-05 0)
(1.49457 -3.93975e-05 0)
(1.49468 -3.84748e-05 0)
(1.49477 -3.75653e-05 0)
(1.49487 -3.66688e-05 0)
(1.49497 -3.57847e-05 0)
(1.49506 -3.49129e-05 0)
(1.49515 -3.40527e-05 0)
(1.49524 -3.32039e-05 0)
(1.49533 -3.2366e-05 0)
(1.49541 -3.15388e-05 0)
(1.4955 -3.07218e-05 0)
(1.49558 -2.99148e-05 0)
(1.49566 -2.91173e-05 0)
(1.49574 -2.83291e-05 0)
(1.49581 -2.755e-05 0)
(1.49589 -2.67795e-05 0)
(1.49596 -2.60177e-05 0)
(1.49603 -2.5264e-05 0)
(1.4961 -2.45184e-05 0)
(1.49616 -2.37807e-05 0)
(1.49623 -2.30508e-05 0)
(1.49629 -2.23285e-05 0)
(1.49636 -2.16139e-05 0)
(1.49642 -2.09067e-05 0)
(1.49647 -2.02071e-05 0)
(1.49653 -1.9515e-05 0)
(1.49658 -1.88306e-05 0)
(1.49664 -1.8154e-05 0)
(1.49669 -1.74852e-05 0)
(1.49674 -1.68245e-05 0)
(1.49679 -1.6172e-05 0)
(1.49683 -1.55281e-05 0)
(1.49688 -1.4893e-05 0)
(1.49692 -1.4267e-05 0)
(1.49696 -1.36504e-05 0)
(1.497 -1.30436e-05 0)
(1.49704 -1.24472e-05 0)
(1.49707 -1.18613e-05 0)
(1.49711 -1.12866e-05 0)
(1.49714 -1.07233e-05 0)
(1.49717 -1.01721e-05 0)
(1.4972 -9.63337e-06 0)
(1.49723 -9.10752e-06 0)
(1.49726 -8.59505e-06 0)
(1.49728 -8.09644e-06 0)
(1.49731 -7.61209e-06 0)
(1.49733 -7.14242e-06 0)
(1.49735 -6.68785e-06 0)
(1.49737 -6.2487e-06 0)
(1.49739 -5.82533e-06 0)
(1.49741 -5.418e-06 0)
(1.49742 -5.02704e-06 0)
(1.49744 -4.65264e-06 0)
(1.49745 -4.29491e-06 0)
(1.49747 -3.95395e-06 0)
(1.49748 -3.62983e-06 0)
(1.49749 -3.3226e-06 0)
(1.4975 -3.03213e-06 0)
(1.49751 -2.75831e-06 0)
(1.49752 -2.50104e-06 0)
(1.49753 -2.25994e-06 0)
(1.49753 -2.03481e-06 0)
(1.49754 -1.82528e-06 0)
(1.49754 -1.631e-06 0)
(1.49755 -1.45145e-06 0)
(1.49755 -1.28622e-06 0)
(1.49756 -1.13469e-06 0)
(1.49756 -9.96346e-07 0)
(1.49756 -8.70605e-07 0)
(1.49757 -7.56774e-07 0)
(1.49757 -6.54271e-07 0)
(1.49757 -5.62377e-07 0)
(1.49757 -4.80453e-07 0)
(1.49757 -4.07837e-07 0)
(1.49758 -3.43749e-07 0)
(1.49758 -2.87652e-07 0)
(1.49758 -2.3879e-07 0)
(1.49758 -1.96532e-07 0)
(1.49758 -1.60331e-07 0)
(1.49758 -1.29426e-07 0)
(1.49758 -1.03357e-07 0)
(1.49758 -8.15338e-08 0)
(1.49758 -6.34924e-08 0)
(1.49758 -4.87255e-08 0)
(1.49758 -3.67099e-08 0)
(1.49758 -2.71511e-08 0)
(1.49758 -1.96185e-08 0)
(1.49758 -1.38671e-08 0)
(1.49758 -9.48721e-09 0)
(1.49758 -6.22714e-09 0)
(1.49758 -3.97862e-09 0)
(1.49758 -2.41986e-09 0)
(1.49758 -1.47588e-09 0)
(1.49758 -8.88145e-10 0)
(1.49758 -6.8274e-10 0)
(1.49758 -6.32874e-10 0)
(1.49758 -7.7093e-10 0)
(1.49758 -9.97726e-10 0)
(1.49758 -1.21759e-09 0)
(1.49758 -1.50654e-09 0)
(1.49758 -1.73661e-09 0)
(1.49758 -1.93692e-09 0)
(1.49758 -2.13628e-09 0)
(1.49758 -2.28857e-09 0)
(1.49758 -2.37791e-09 0)
(1.49758 -2.48095e-09 0)
(1.49758 -2.5054e-09 0)
(1.49758 -2.50144e-09 0)
(1.49758 -2.51424e-09 0)
(1.49758 -2.4864e-09 0)
(1.49758 -2.44294e-09 0)
(1.49758 -2.3985e-09 0)
(1.49758 -2.34957e-09 0)
(1.49758 -2.32763e-09 0)
(1.49758 -2.2653e-09 0)
(1.49758 -2.20472e-09 0)
(1.49758 -2.177e-09 0)
(1.49758 -2.1585e-09 0)
(1.49758 -2.10892e-09 0)
(1.49758 -2.07196e-09 0)
(1.49758 -2.0275e-09 0)
(1.49758 -1.98911e-09 0)
(1.49758 -2.01232e-09 0)
(1.49758 -1.92461e-09 0)
(1.49758 -1.91538e-09 0)
(1.49758 -1.85999e-09 0)
(1.49758 -1.84149e-09 0)
(1.49758 -1.7917e-09 0)
(1.49758 -1.78278e-09 0)
(1.49758 -1.71726e-09 0)
(1.49758 -1.71635e-09 0)
(1.49758 -1.66013e-09 0)
(1.49758 -1.61915e-09 0)
(1.49758 -1.62082e-09 0)
(1.49758 -1.61955e-09 0)
(1.49758 -1.54194e-09 0)
(1.49758 -1.55674e-09 0)
(1.49758 -1.48401e-09 0)
(1.49758 -1.48499e-09 0)
(1.49758 -1.48188e-09 0)
(1.49758 -1.42868e-09 0)
(1.49758 -1.47108e-09 0)
(1.49758 -1.40775e-09 0)
(1.49758 -1.39127e-09 0)
(1.49758 -1.34843e-09 0)
(1.49758 -1.35813e-09 0)
(1.49758 -1.32339e-09 0)
(1.49758 -1.31535e-09 0)
(1.49758 -1.28688e-09 0)
(1.49758 -1.2599e-09 0)
(1.49758 -1.24397e-09 0)
(1.49758 -1.19141e-09 0)
(1.49758 -1.1995e-09 0)
(1.49758 -1.14773e-09 0)
(1.49758 -1.15647e-09 0)
(1.49758 -1.14331e-09 0)
(1.49758 -1.12562e-09 0)
(1.49758 -1.07359e-09 0)
(1.49758 -1.06371e-09 0)
(1.49758 -1.0342e-09 0)
(1.49758 -1.04424e-09 0)
(1.49758 -1.06426e-09 0)
(1.49758 -9.85159e-10 0)
(1.49758 -1.0162e-09 0)
(1.49758 -9.46745e-10 0)
(1.49758 -9.54923e-10 0)
(1.49758 -9.61541e-10 0)
(1.49758 -8.46237e-10 0)
(1.49758 -8.71031e-10 0)
(1.49758 -7.37879e-10 0)
(1.49758 -6.86503e-10 0)
(1.49758 -5.43204e-10 0)
(1.49758 -3.60008e-10 0)
(1.49758 6.18433e-12 0)
(1.49758 2.43374e-10 0)
(1.00001 -0.000165029 0)
(1.00006 -0.000496283 0)
(1.00017 -0.000828891 0)
(1.00035 -0.00116233 0)
(1.00059 -0.00149611 0)
(1.00089 -0.00182973 0)
(1.00125 -0.00216271 0)
(1.00167 -0.00249454 0)
(1.00215 -0.00282472 0)
(1.00269 -0.00315276 0)
(1.0033 -0.00347815 0)
(1.00397 -0.00380041 0)
(1.00469 -0.00411907 0)
(1.00548 -0.00443365 0)
(1.00633 -0.0047437 0)
(1.00725 -0.00504877 0)
(1.00822 -0.00534846 0)
(1.00925 -0.00564234 0)
(1.01033 -0.00593005 0)
(1.01148 -0.00621121 0)
(1.01268 -0.00648549 0)
(1.01394 -0.00675257 0)
(1.01525 -0.00701217 0)
(1.01662 -0.00726402 0)
(1.01804 -0.00750788 0)
(1.01951 -0.00774354 0)
(1.02103 -0.00797082 0)
(1.0226 -0.00818957 0)
(1.02422 -0.00839965 0)
(1.02588 -0.00860096 0)
(1.02758 -0.00879342 0)
(1.02933 -0.00897699 0)
(1.03113 -0.00915163 0)
(1.03296 -0.00931735 0)
(1.03483 -0.00947417 0)
(1.03673 -0.00962212 0)
(1.03868 -0.00976128 0)
(1.04065 -0.00989172 0)
(1.04266 -0.0100135 0)
(1.0447 -0.0101269 0)
(1.04677 -0.0102319 0)
(1.04887 -0.0103286 0)
(1.05099 -0.0104174 0)
(1.05314 -0.0104982 0)
(1.05531 -0.0105714 0)
(1.0575 -0.0106371 0)
(1.05972 -0.0106955 0)
(1.06195 -0.0107469 0)
(1.0642 -0.0107914 0)
(1.06647 -0.0108293 0)
(1.06876 -0.0108608 0)
(1.07106 -0.0108861 0)
(1.07337 -0.0109054 0)
(1.07569 -0.0109191 0)
(1.07802 -0.0109273 0)
(1.08037 -0.0109302 0)
(1.08272 -0.0109281 0)
(1.08508 -0.0109213 0)
(1.08745 -0.0109099 0)
(1.08982 -0.0108941 0)
(1.0922 -0.0108742 0)
(1.09458 -0.0108505 0)
(1.09696 -0.010823 0)
(1.09935 -0.0107921 0)
(1.10174 -0.0107578 0)
(1.10413 -0.0107205 0)
(1.10651 -0.0106803 0)
(1.1089 -0.0106374 0)
(1.11129 -0.0105919 0)
(1.11368 -0.010544 0)
(1.11606 -0.010494 0)
(1.11844 -0.0104419 0)
(1.12082 -0.0103879 0)
(1.1232 -0.0103322 0)
(1.12557 -0.0102749 0)
(1.12793 -0.0102161 0)
(1.13029 -0.010156 0)
(1.13265 -0.0100947 0)
(1.135 -0.0100323 0)
(1.13734 -0.00996888 0)
(1.13968 -0.0099046 0)
(1.14201 -0.00983955 0)
(1.14434 -0.00977381 0)
(1.14665 -0.00970749 0)
(1.14896 -0.00964066 0)
(1.15127 -0.00957341 0)
(1.15356 -0.00950581 0)
(1.15585 -0.00943793 0)
(1.15813 -0.00936983 0)
(1.1604 -0.00930159 0)
(1.16266 -0.00923326 0)
(1.16492 -0.00916489 0)
(1.16716 -0.00909653 0)
(1.1694 -0.00902823 0)
(1.17163 -0.00896004 0)
(1.17385 -0.00889199 0)
(1.17606 -0.00882412 0)
(1.17826 -0.00875647 0)
(1.18046 -0.00868906 0)
(1.18264 -0.00862192 0)
(1.18482 -0.00855508 0)
(1.18698 -0.00848857 0)
(1.18914 -0.0084224 0)
(1.19129 -0.00835659 0)
(1.19343 -0.00829116 0)
(1.19556 -0.00822613 0)
(1.19768 -0.0081615 0)
(1.19979 -0.00809729 0)
(1.2019 -0.00803351 0)
(1.20399 -0.00797016 0)
(1.20608 -0.00790725 0)
(1.20815 -0.00784479 0)
(1.21022 -0.00778279 0)
(1.21228 -0.00772123 0)
(1.21432 -0.00766014 0)
(1.21636 -0.0075995 0)
(1.21839 -0.00753932 0)
(1.22042 -0.00747959 0)
(1.22243 -0.00742032 0)
(1.22443 -0.0073615 0)
(1.22643 -0.00730314 0)
(1.22841 -0.00724521 0)
(1.23039 -0.00718773 0)
(1.23236 -0.00713069 0)
(1.23432 -0.00707408 0)
(1.23627 -0.0070179 0)
(1.23821 -0.00696215 0)
(1.24014 -0.0069068 0)
(1.24207 -0.00685187 0)
(1.24398 -0.00679735 0)
(1.24589 -0.00674322 0)
(1.24779 -0.00668949 0)
(1.24968 -0.00663614 0)
(1.25156 -0.00658316 0)
(1.25343 -0.00653057 0)
(1.25529 -0.00647833 0)
(1.25715 -0.00642646 0)
(1.259 -0.00637494 0)
(1.26083 -0.00632376 0)
(1.26266 -0.00627292 0)
(1.26448 -0.00622242 0)
(1.2663 -0.00617224 0)
(1.2681 -0.00612239 0)
(1.2699 -0.00607284 0)
(1.27168 -0.00602361 0)
(1.27346 -0.00597468 0)
(1.27523 -0.00592605 0)
(1.277 -0.00587771 0)
(1.27875 -0.00582965 0)
(1.28049 -0.00578188 0)
(1.28223 -0.00573438 0)
(1.28396 -0.00568716 0)
(1.28568 -0.0056402 0)
(1.28739 -0.00559351 0)
(1.28909 -0.00554707 0)
(1.29079 -0.00550089 0)
(1.29248 -0.00545496 0)
(1.29416 -0.00540928 0)
(1.29583 -0.00536385 0)
(1.29749 -0.00531865 0)
(1.29914 -0.00527369 0)
(1.30079 -0.00522896 0)
(1.30242 -0.00518447 0)
(1.30405 -0.00514021 0)
(1.30567 -0.00509617 0)
(1.30728 -0.00505236 0)
(1.30889 -0.00500877 0)
(1.31048 -0.0049654 0)
(1.31207 -0.00492225 0)
(1.31365 -0.00487932 0)
(1.31522 -0.00483661 0)
(1.31678 -0.00479411 0)
(1.31833 -0.00475182 0)
(1.31988 -0.00470975 0)
(1.32141 -0.00466788 0)
(1.32294 -0.00462623 0)
(1.32446 -0.00458479 0)
(1.32597 -0.00454355 0)
(1.32748 -0.00450253 0)
(1.32897 -0.00446171 0)
(1.33046 -0.0044211 0)
(1.33194 -0.0043807 0)
(1.33341 -0.0043405 0)
(1.33487 -0.00430052 0)
(1.33632 -0.00426074 0)
(1.33777 -0.00422116 0)
(1.3392 -0.0041818 0)
(1.34063 -0.00414264 0)
(1.34205 -0.00410369 0)
(1.34346 -0.00406495 0)
(1.34486 -0.00402641 0)
(1.34626 -0.00398809 0)
(1.34765 -0.00394997 0)
(1.34902 -0.00391206 0)
(1.35039 -0.00387437 0)
(1.35175 -0.00383688 0)
(1.35311 -0.0037996 0)
(1.35445 -0.00376254 0)
(1.35579 -0.00372568 0)
(1.35712 -0.00368904 0)
(1.35844 -0.00365261 0)
(1.35975 -0.0036164 0)
(1.36105 -0.00358039 0)
(1.36235 -0.0035446 0)
(1.36363 -0.00350903 0)
(1.36491 -0.00347367 0)
(1.36618 -0.00343853 0)
(1.36744 -0.0034036 0)
(1.36869 -0.00336889 0)
(1.36994 -0.0033344 0)
(1.37118 -0.00330012 0)
(1.3724 -0.00326606 0)
(1.37362 -0.00323222 0)
(1.37484 -0.0031986 0)
(1.37604 -0.0031652 0)
(1.37724 -0.00313202 0)
(1.37842 -0.00309906 0)
(1.3796 -0.00306632 0)
(1.38077 -0.0030338 0)
(1.38194 -0.0030015 0)
(1.38309 -0.00296942 0)
(1.38424 -0.00293756 0)
(1.38538 -0.00290592 0)
(1.38651 -0.00287451 0)
(1.38763 -0.00284332 0)
(1.38874 -0.00281235 0)
(1.38985 -0.0027816 0)
(1.39095 -0.00275107 0)
(1.39204 -0.00272077 0)
(1.39312 -0.00269069 0)
(1.39419 -0.00266083 0)
(1.39526 -0.00263119 0)
(1.39632 -0.00260177 0)
(1.39737 -0.00257258 0)
(1.39841 -0.00254361 0)
(1.39944 -0.00251486 0)
(1.40047 -0.00248633 0)
(1.40149 -0.00245802 0)
(1.4025 -0.00242993 0)
(1.4035 -0.00240206 0)
(1.4045 -0.00237442 0)
(1.40548 -0.00234699 0)
(1.40646 -0.00231979 0)
(1.40743 -0.0022928 0)
(1.4084 -0.00226603 0)
(1.40935 -0.00223948 0)
(1.4103 -0.00221315 0)
(1.41124 -0.00218703 0)
(1.41218 -0.00216114 0)
(1.4131 -0.00213546 0)
(1.41402 -0.00210999 0)
(1.41493 -0.00208474 0)
(1.41584 -0.00205971 0)
(1.41673 -0.00203489 0)
(1.41762 -0.00201028 0)
(1.4185 -0.00198589 0)
(1.41937 -0.00196171 0)
(1.42024 -0.00193774 0)
(1.4211 -0.00191398 0)
(1.42195 -0.00189043 0)
(1.42279 -0.00186709 0)
(1.42363 -0.00184396 0)
(1.42446 -0.00182104 0)
(1.42528 -0.00179832 0)
(1.4261 -0.00177581 0)
(1.42691 -0.00175351 0)
(1.42771 -0.00173141 0)
(1.4285 -0.00170951 0)
(1.42929 -0.00168782 0)
(1.43007 -0.00166633 0)
(1.43084 -0.00164504 0)
(1.43161 -0.00162395 0)
(1.43237 -0.00160306 0)
(1.43312 -0.00158237 0)
(1.43386 -0.00156188 0)
(1.4346 -0.00154158 0)
(1.43533 -0.00152148 0)
(1.43606 -0.00150157 0)
(1.43677 -0.00148186 0)
(1.43748 -0.00146234 0)
(1.43819 -0.00144301 0)
(1.43889 -0.00142387 0)
(1.43958 -0.00140492 0)
(1.44026 -0.00138616 0)
(1.44094 -0.00136759 0)
(1.44161 -0.00134921 0)
(1.44228 -0.00133101 0)
(1.44293 -0.00131299 0)
(1.44359 -0.00129516 0)
(1.44423 -0.00127751 0)
(1.44487 -0.00126004 0)
(1.4455 -0.00124275 0)
(1.44613 -0.00122565 0)
(1.44675 -0.00120872 0)
(1.44736 -0.00119196 0)
(1.44797 -0.00117539 0)
(1.44857 -0.00115898 0)
(1.44917 -0.00114276 0)
(1.44976 -0.0011267 0)
(1.45034 -0.00111082 0)
(1.45092 -0.0010951 0)
(1.45149 -0.00107956 0)
(1.45206 -0.00106419 0)
(1.45262 -0.00104898 0)
(1.45317 -0.00103394 0)
(1.45372 -0.00101906 0)
(1.45426 -0.00100435 0)
(1.4548 -0.000989797 0)
(1.45533 -0.000975409 0)
(1.45585 -0.000961182 0)
(1.45637 -0.000947114 0)
(1.45688 -0.000933204 0)
(1.45739 -0.000919452 0)
(1.45789 -0.000905856 0)
(1.45839 -0.000892415 0)
(1.45888 -0.000879127 0)
(1.45937 -0.000865993 0)
(1.45985 -0.00085301 0)
(1.46032 -0.000840178 0)
(1.46079 -0.000827496 0)
(1.46125 -0.000814961 0)
(1.46171 -0.000802574 0)
(1.46217 -0.000790333 0)
(1.46262 -0.000778237 0)
(1.46306 -0.000766285 0)
(1.4635 -0.000754476 0)
(1.46393 -0.000742808 0)
(1.46436 -0.000731281 0)
(1.46478 -0.000719894 0)
(1.4652 -0.000708644 0)
(1.46561 -0.000697532 0)
(1.46602 -0.000686557 0)
(1.46642 -0.000675716 0)
(1.46682 -0.000665009 0)
(1.46722 -0.000654435 0)
(1.4676 -0.000643993 0)
(1.46799 -0.000633681 0)
(1.46837 -0.000623499 0)
(1.46874 -0.000613446 0)
(1.46911 -0.00060352 0)
(1.46948 -0.00059372 0)
(1.46984 -0.000584046 0)
(1.47019 -0.000574496 0)
(1.47055 -0.000565068 0)
(1.47089 -0.000555763 0)
(1.47124 -0.000546579 0)
(1.47158 -0.000537515 0)
(1.47191 -0.000528569 0)
(1.47224 -0.000519742 0)
(1.47257 -0.000511031 0)
(1.47289 -0.000502436 0)
(1.4732 -0.000493955 0)
(1.47352 -0.000485588 0)
(1.47383 -0.000477333 0)
(1.47413 -0.00046919 0)
(1.47443 -0.000461158 0)
(1.47473 -0.000453234 0)
(1.47502 -0.00044542 0)
(1.47531 -0.000437712 0)
(1.4756 -0.000430111 0)
(1.47588 -0.000422615 0)
(1.47615 -0.000415223 0)
(1.47643 -0.000407935 0)
(1.4767 -0.000400749 0)
(1.47696 -0.000393664 0)
(1.47723 -0.00038668 0)
(1.47748 -0.000379795 0)
(1.47774 -0.000373008 0)
(1.47799 -0.000366318 0)
(1.47824 -0.000359725 0)
(1.47848 -0.000353227 0)
(1.47872 -0.000346823 0)
(1.47896 -0.000340513 0)
(1.47919 -0.000334295 0)
(1.47943 -0.000328168 0)
(1.47965 -0.000322132 0)
(1.47988 -0.000316185 0)
(1.4801 -0.000310327 0)
(1.48031 -0.000304557 0)
(1.48053 -0.000298873 0)
(1.48074 -0.000293275 0)
(1.48095 -0.000287761 0)
(1.48115 -0.000282331 0)
(1.48135 -0.000276985 0)
(1.48155 -0.00027172 0)
(1.48175 -0.000266536 0)
(1.48194 -0.000261432 0)
(1.48213 -0.000256407 0)
(1.48231 -0.000251461 0)
(1.4825 -0.000246592 0)
(1.48268 -0.000241799 0)
(1.48286 -0.000237081 0)
(1.48303 -0.000232439 0)
(1.4832 -0.000227869 0)
(1.48337 -0.000223373 0)
(1.48354 -0.000218948 0)
(1.4837 -0.000214594 0)
(1.48387 -0.00021031 0)
(1.48403 -0.000206094 0)
(1.48418 -0.000201947 0)
(1.48434 -0.000197867 0)
(1.48449 -0.000193853 0)
(1.48464 -0.000189905 0)
(1.48478 -0.00018602 0)
(1.48493 -0.000182199 0)
(1.48507 -0.00017844 0)
(1.48521 -0.000174743 0)
(1.48534 -0.000171106 0)
(1.48548 -0.000167529 0)
(1.48561 -0.000164009 0)
(1.48574 -0.000160548 0)
(1.48587 -0.000157142 0)
(1.48599 -0.000153792 0)
(1.48611 -0.000150497 0)
(1.48623 -0.000147254 0)
(1.48635 -0.000144064 0)
(1.48647 -0.000140925 0)
(1.48658 -0.000137836 0)
(1.4867 -0.000134796 0)
(1.48681 -0.000131804 0)
(1.48692 -0.000128859 0)
(1.48702 -0.000125959 0)
(1.48713 -0.000123104 0)
(1.48723 -0.000120292 0)
(1.48733 -0.000117522 0)
(1.48743 -0.000114793 0)
(1.48752 -0.000112104 0)
(1.48762 -0.000109454 0)
(1.48771 -0.000106841 0)
(1.4878 -0.000104264 0)
(1.48789 -0.000101723 0)
(1.48798 -9.92161e-05 0)
(1.48806 -9.6742e-05 0)
(1.48815 -9.42999e-05 0)
(1.48823 -9.18886e-05 0)
(1.48831 -8.95072e-05 0)
(1.48838 -8.71547e-05 0)
(1.48846 -8.483e-05 0)
(1.48854 -8.25324e-05 0)
(1.48861 -8.0261e-05 0)
(1.48868 -7.8015e-05 0)
(1.48875 -7.57938e-05 0)
(1.48882 -7.35966e-05 0)
(1.48888 -7.14228e-05 0)
(1.48895 -6.9272e-05 0)
(1.48901 -6.71439e-05 0)
(1.48907 -6.50381e-05 0)
(1.48913 -6.29542e-05 0)
(1.48918 -6.08923e-05 0)
(1.48924 -5.88523e-05 0)
(1.48929 -5.68345e-05 0)
(1.48935 -5.4839e-05 0)
(1.4894 -5.2866e-05 0)
(1.48945 -5.09159e-05 0)
(1.48949 -4.89894e-05 0)
(1.48954 -4.7087e-05 0)
(1.48958 -4.52096e-05 0)
(1.48962 -4.33578e-05 0)
(1.48967 -4.15327e-05 0)
(1.4897 -3.97351e-05 0)
(1.48974 -3.79663e-05 0)
(1.48978 -3.62275e-05 0)
(1.48981 -3.45198e-05 0)
(1.48985 -3.28445e-05 0)
(1.48988 -3.12028e-05 0)
(1.48991 -2.95963e-05 0)
(1.48993 -2.80262e-05 0)
(1.48996 -2.64939e-05 0)
(1.48999 -2.50006e-05 0)
(1.49001 -2.35478e-05 0)
(1.49003 -2.21367e-05 0)
(1.49006 -2.07686e-05 0)
(1.49008 -1.94445e-05 0)
(1.4901 -1.81655e-05 0)
(1.49011 -1.69325e-05 0)
(1.49013 -1.57466e-05 0)
(1.49015 -1.46084e-05 0)
(1.49016 -1.35184e-05 0)
(1.49017 -1.24771e-05 0)
(1.49019 -1.14848e-05 0)
(1.4902 -1.05418e-05 0)
(1.49021 -9.64787e-06 0)
(1.49022 -8.80291e-06 0)
(1.49023 -8.00654e-06 0)
(1.49023 -7.2583e-06 0)
(1.49024 -6.55735e-06 0)
(1.49025 -5.90291e-06 0)
(1.49025 -5.29393e-06 0)
(1.49026 -4.72933e-06 0)
(1.49026 -4.20779e-06 0)
(1.49027 -3.72781e-06 0)
(1.49027 -3.28779e-06 0)
(1.49028 -2.88611e-06 0)
(1.49028 -2.52111e-06 0)
(1.49028 -2.19086e-06 0)
(1.49028 -1.89347e-06 0)
(1.49028 -1.62698e-06 0)
(1.49029 -1.38946e-06 0)
(1.49029 -1.17899e-06 0)
(1.49029 -9.93425e-07 0)
(1.49029 -8.30853e-07 0)
(1.49029 -6.89381e-07 0)
(1.49029 -5.67136e-07 0)
(1.49029 -4.62312e-07 0)
(1.49029 -3.73022e-07 0)
(1.49029 -2.97657e-07 0)
(1.49029 -2.34682e-07 0)
(1.49029 -1.82568e-07 0)
(1.49029 -1.39883e-07 0)
(1.49029 -1.05318e-07 0)
(1.49029 -7.77628e-08 0)
(1.49029 -5.61923e-08 0)
(1.49029 -3.95793e-08 0)
(1.49029 -2.70191e-08 0)
(1.49029 -1.77948e-08 0)
(1.49029 -1.13244e-08 0)
(1.49029 -6.91093e-09 0)
(1.49029 -4.15798e-09 0)
(1.49029 -2.58548e-09 0)
(1.49029 -1.95823e-09 0)
(1.49029 -1.91496e-09 0)
(1.49029 -2.28494e-09 0)
(1.49029 -2.95513e-09 0)
(1.49029 -3.67774e-09 0)
(1.49029 -4.46238e-09 0)
(1.49029 -5.16303e-09 0)
(1.49029 -5.748e-09 0)
(1.49029 -6.26499e-09 0)
(1.49029 -6.70783e-09 0)
(1.49029 -7.01559e-09 0)
(1.49029 -7.24633e-09 0)
(1.49029 -7.3735e-09 0)
(1.49029 -7.41393e-09 0)
(1.49029 -7.39744e-09 0)
(1.49029 -7.33343e-09 0)
(1.49029 -7.24007e-09 0)
(1.49029 -7.13183e-09 0)
(1.49029 -6.98488e-09 0)
(1.49029 -6.84404e-09 0)
(1.49029 -6.7041e-09 0)
(1.49029 -6.53111e-09 0)
(1.49029 -6.4028e-09 0)
(1.49029 -6.28077e-09 0)
(1.49029 -6.18314e-09 0)
(1.49029 -6.05992e-09 0)
(1.49029 -5.921e-09 0)
(1.49029 -5.83982e-09 0)
(1.49029 -5.78696e-09 0)
(1.49029 -5.64358e-09 0)
(1.49029 -5.52294e-09 0)
(1.49029 -5.40034e-09 0)
(1.49029 -5.33573e-09 0)
(1.49029 -5.21089e-09 0)
(1.49029 -5.16436e-09 0)
(1.49029 -5.07479e-09 0)
(1.49029 -4.98377e-09 0)
(1.49029 -4.87229e-09 0)
(1.49029 -4.79655e-09 0)
(1.49029 -4.72441e-09 0)
(1.49029 -4.67647e-09 0)
(1.49029 -4.56124e-09 0)
(1.49029 -4.47201e-09 0)
(1.49029 -4.39642e-09 0)
(1.49029 -4.35791e-09 0)
(1.49029 -4.32235e-09 0)
(1.49029 -4.23476e-09 0)
(1.49029 -4.18576e-09 0)
(1.49029 -4.09973e-09 0)
(1.49029 -4.04944e-09 0)
(1.49029 -3.95215e-09 0)
(1.49029 -3.89812e-09 0)
(1.49029 -3.83857e-09 0)
(1.49029 -3.77618e-09 0)
(1.49029 -3.69759e-09 0)
(1.49029 -3.65107e-09 0)
(1.49029 -3.60949e-09 0)
(1.49029 -3.53944e-09 0)
(1.49029 -3.44846e-09 0)
(1.49029 -3.38965e-09 0)
(1.49029 -3.36432e-09 0)
(1.49029 -3.31812e-09 0)
(1.49029 -3.271e-09 0)
(1.49029 -3.18185e-09 0)
(1.49029 -3.14845e-09 0)
(1.49029 -3.09851e-09 0)
(1.49029 -3.05172e-09 0)
(1.49029 -3.01544e-09 0)
(1.49029 -2.9355e-09 0)
(1.49029 -2.8906e-09 0)
(1.49029 -2.83655e-09 0)
(1.49029 -2.75393e-09 0)
(1.49029 -2.71797e-09 0)
(1.49029 -2.54537e-09 0)
(1.49029 -2.46055e-09 0)
(1.49029 -2.21967e-09 0)
(1.49029 -1.96333e-09 0)
(1.49029 -1.46961e-09 0)
(1.49029 -9.92962e-10 0)
(1.49029 -2.19294e-10 0)
(1.49029 7.68862e-10 0)
(1.00001 -0.000273701 0)
(1.00006 -0.000823102 0)
(1.00018 -0.00137475 0)
(1.00037 -0.00192775 0)