/*--------------------------------*- C++ -*----------------------------------*\
  =========                 |
  \\      /  F ield         | OpenFOAM: The Open Source CFD Toolbox
   \\    /   O peration     | Website:  https://openfoam.org
    \\  /    A nd           | Version:  7
     \\/     M anipulation  |
\*---------------------------------------------------------------------------*/
FoamFile
{
    version     2.0;
    format      ascii;
    class       volScalarField;
    location    "2";
    object      p;
}
// * * * * * * * * * * * * * * * * * * * * * * * * * * * * * * * * * * * * * //

dimensions      [0 2 -2 0 0 0 0];

internalField   nonuniform List<scalar> 
48000
(
2.0664
2.06643
2.0664
2.06631
2.06616
2.06595
2.06569
2.06536
2.06497
2.06452
2.06402
2.06345
2.06282
2.06213
2.06138
2.06057
2.0597
2.05877
2.05779
2.05674
2.05564
2.05448
2.05327
2.052
2.05068
2.0493
2.04788
2.0464
2.04487
2.04329
2.04167
2.04
2.03828
2.03653
2.03472
2.03288
2.031
2.02908
2.02712
2.02513
2.02311
2.02105
2.01896
2.01684
2.01469
2.01251
2.01031
2.00808
2.00583
2.00356
2.00127
1.99895
1.99662
1.99427
1.99191
1.98953
1.98714
1.98473
1.98231
1.97988
1.97744
1.975
1.97254
1.97008
1.96761
1.96514
1.96266
1.96017
1.95769
1.9552
1.95271
1.95022
1.94772
1.94523
1.94274
1.94025
1.93776
1.93527
1.93279
1.9303
1.92782
1.92535
1.92287
1.9204
1.91794
1.91548
1.91303
1.91058
1.90813
1.90569
1.90326
1.90083
1.89841
1.89599
1.89359
1.89118
1.88879
1.8864
1.88401
1.88164
1.87926
1.8769
1.87454
1.87219
1.86985
1.86751
1.86518
1.86286
1.86054
1.85823
1.85592
1.85362
1.85133
1.84905
1.84677
1.84449
1.84223
1.83996
1.83771
1.83546
1.83321
1.83097
1.82874
1.82651
1.82429
1.82207
1.81986
1.81765
1.81545
1.81325
1.81106
1.80887
1.80668
1.8045
1.80233
1.80015
1.79799
1.79582
1.79366
1.79151
1.78935
1.7872
1.78506
1.78291
1.78078
1.77864
1.77651
1.77438
1.77225
1.77012
1.768
1.76588
1.76377
1.76166
1.75954
1.75744
1.75533
1.75323
1.75112
1.74903
1.74693
1.74483
1.74274
1.74065
1.73856
1.73648
1.73439
1.73231
1.73023
1.72815
1.72607
1.724
1.72193
1.71986
1.71779
1.71572
1.71366
1.71159
1.70953
1.70747
1.70541
1.70336
1.7013
1.69925
1.6972
1.69515
1.6931
1.69106
1.68901
1.68697
1.68493
1.68289
1.68086
1.67882
1.67679
1.67475
1.67272
1.67069
1.66866
1.66664
1.66461
1.66259
1.66056
1.65854
1.65652
1.6545
1.65248
1.65046
1.64844
1.64643
1.64441
1.64239
1.64038
1.63836
1.63634
1.63433
1.63231
1.63029
1.62828
1.62626
1.62424
1.62222
1.6202
1.61818
1.61615
1.61413
1.6121
1.61007
1.60804
1.60601
1.60397
1.60193
1.59989
1.59785
1.5958
1.59375
1.59169
1.58964
1.58757
1.58551
1.58344
1.58136
1.57928
1.57719
1.5751
1.57301
1.57091
1.5688
1.56668
1.56456
1.56244
1.5603
1.55816
1.55602
1.55386
1.5517
1.54953
1.54736
1.54517
1.54298
1.54078
1.53857
1.53635
1.53413
1.5319
1.52966
1.52741
1.52515
1.52288
1.5206
1.51832
1.51603
1.51372
1.51141
1.50909
1.50676
1.50442
1.50208
1.49972
1.49735
1.49498
1.4926
1.4902
1.4878
1.48539
1.48297
1.48054
1.4781
1.47565
1.47319
1.47072
1.46824
1.46576
1.46326
1.46075
1.45824
1.45571
1.45317
1.45063
1.44807
1.44551
1.44293
1.44035
1.43775
1.43515
1.43254
1.42991
1.42728
1.42463
1.42197
1.41931
1.41663
1.41395
1.41125
1.40854
1.40583
1.4031
1.40036
1.39761
1.39485
1.39208
1.3893
1.38651
1.38371
1.3809
1.37807
1.37524
1.37239
1.36954
1.36667
1.36379
1.3609
1.358
1.35509
1.35217
1.34923
1.34629
1.34333
1.34036
1.33738
1.33439
1.33139
1.32837
1.32535
1.32231
1.31926
1.3162
1.31313
1.31004
1.30694
1.30384
1.30072
1.29758
1.29444
1.29128
1.28811
1.28493
1.28174
1.27853
1.27532
1.27209
1.26884
1.26559
1.26232
1.25904
1.25575
1.25244
1.24912
1.24579
1.24245
1.23909
1.23572
1.23234
1.22894
1.22553
1.22211
1.21868
1.21523
1.21177
1.20829
1.2048
1.2013
1.19779
1.19426
1.19071
1.18716
1.18359
1.18
1.17641
1.1728
1.16917
1.16553
1.16188
1.15821
1.15453
1.15084
1.14713
1.1434
1.13966
1.13591
1.13214
1.12836
1.12457
1.12076
1.11693
1.11309
1.10923
1.10536
1.10148
1.09758
1.09367
1.08974
1.08579
1.08183
1.07785
1.07386
1.06986
1.06584
1.0618
1.05775
1.05368
1.04959
1.0455
1.04138
1.03725
1.0331
1.02894
1.02476
1.02056
1.01635
1.01213
1.00788
1.00362
0.999344
0.995051
0.990742
0.986415
0.982073
0.977713
0.973336
0.968943
0.964533
0.960106
0.955662
0.9512
0.946722
0.942226
0.937713
0.933182
0.928635
0.924069
0.919486
0.914885
0.910267
0.905631
0.900977
0.896305
0.891615
0.886907
0.882181
0.877437
0.872674
0.867893
0.863094
0.858276
0.853439
0.848584
0.843711
0.838818
0.833907
0.828976
0.824027
0.819059
0.814072
0.809065
0.804039
0.798994
0.793929
0.788845
0.783741
0.778617
0.773474
0.768311
0.763128
0.757925
0.752703
0.74746
0.742196
0.736913
0.731609
0.726285
0.72094
0.715575
0.710189
0.704782
0.699354
0.693906
0.688437
0.682946
0.677434
0.671901
0.666347
0.660772
0.655175
0.649556
0.643916
0.638254
0.63257
0.626864
0.621137
0.615387
0.609615
0.603821
0.598004
0.592166
0.586304
0.58042
0.574514
0.568585
0.562633
0.556658
0.550659
0.544638
0.538594
0.532526
0.526435
0.520321
0.514183
0.508021
0.501836
0.495627
0.489394
0.483136
0.476855
0.47055
0.46422
0.457866
0.451488
0.445084
0.438657
0.432204
0.425727
0.419224
0.412697
0.406145
0.399567
0.392964
0.386335
0.379681
0.373002
0.366296
0.359565
0.352808
0.346025
0.339215
0.33238
0.325518
0.31863
0.311715
0.304774
0.297805
0.29081
0.283789
0.27674
0.269663
0.26256
0.255429
0.248271
0.241085
0.233872
0.226631
0.219361
0.212064
0.204739
0.197386
0.190004
0.182594
0.175155
0.167688
0.160192
0.152667
0.145113
0.137529
0.129917
0.122276
0.114605
0.106904
0.0991737
0.0914137
0.0836238
0.0758039
0.0679539
0.0600736
0.052163
0.044222
0.0362503
0.028248
0.0202148
0.0121507
0.00405542
2.06724
2.06727
2.06725
2.06716
2.06701
2.06679
2.06652
2.06618
2.06579
2.06533
2.06481
2.06423
2.06359
2.06288
2.06212
2.06129
2.06041
2.05946
2.05846
2.05739
2.05627
2.05509
2.05386
2.05257
2.05122
2.04982
2.04837
2.04687
2.04532
2.04372
2.04207
2.04038
2.03864
2.03686
2.03504
2.03317
2.03127
2.02933
2.02735
2.02533
2.02329
2.02121
2.0191
2.01696
2.01479
2.0126
2.01038
2.00813
2.00587
2.00358
2.00127
1.99894
1.9966
1.99424
1.99186
1.98947
1.98706
1.98465
1.98222
1.97978
1.97733
1.97488
1.97242
1.96995
1.96747
1.96499
1.96251
1.96002
1.95753
1.95503
1.95254
1.95004
1.94755
1.94505
1.94256
1.94006
1.93757
1.93508
1.93259
1.93011
1.92763
1.92515
1.92268
1.92021
1.91775
1.91529
1.91283
1.91038
1.90794
1.9055
1.90307
1.90064
1.89822
1.89581
1.8934
1.891
1.8886
1.88622
1.88383
1.88146
1.87909
1.87673
1.87437
1.87202
1.86968
1.86735
1.86502
1.8627
1.86038
1.85807
1.85577
1.85347
1.85118
1.8489
1.84662
1.84435
1.84208
1.83983
1.83757
1.83532
1.83308
1.83084
1.82861
1.82639
1.82417
1.82195
1.81974
1.81753
1.81533
1.81314
1.81094
1.80876
1.80657
1.8044
1.80222
1.80005
1.79789
1.79572
1.79356
1.79141
1.78926
1.78711
1.78497
1.78283
1.78069
1.77855
1.77642
1.77429
1.77217
1.77004
1.76792
1.76581
1.76369
1.76158
1.75947
1.75736
1.75526
1.75316
1.75106
1.74896
1.74686
1.74477
1.74268
1.74059
1.7385
1.73641
1.73433
1.73225
1.73017
1.72809
1.72602
1.72394
1.72187
1.7198
1.71773
1.71567
1.7136
1.71154
1.70948
1.70742
1.70536
1.70331
1.70126
1.6992
1.69715
1.69511
1.69306
1.69101
1.68897
1.68693
1.68489
1.68285
1.68082
1.67878
1.67675
1.67472
1.67269
1.67066
1.66863
1.6666
1.66458
1.66255
1.66053
1.65851
1.65649
1.65447
1.65245
1.65043
1.64842
1.6464
1.64438
1.64237
1.64035
1.63834
1.63632
1.6343
1.63229
1.63027
1.62825
1.62624
1.62422
1.6222
1.62018
1.61816
1.61613
1.61411
1.61208
1.61005
1.60802
1.60599
1.60396
1.60192
1.59988
1.59783
1.59579
1.59374
1.59168
1.58963
1.58756
1.5855
1.58343
1.58135
1.57927
1.57719
1.5751
1.573
1.5709
1.56879
1.56668
1.56456
1.56243
1.5603
1.55816
1.55601
1.55386
1.5517
1.54953
1.54735
1.54517
1.54298
1.54078
1.53857
1.53635
1.53413
1.5319
1.52965
1.52741
1.52515
1.52288
1.5206
1.51832
1.51603
1.51372
1.51141
1.50909
1.50676
1.50442
1.50208
1.49972
1.49735
1.49498
1.4926
1.4902
1.4878
1.48539
1.48297
1.48054
1.4781
1.47565
1.47319
1.47072
1.46824
1.46576
1.46326
1.46075
1.45824
1.45571
1.45317
1.45063
1.44807
1.44551
1.44293
1.44035
1.43775
1.43515
1.43254
1.42991
1.42728
1.42463
1.42197
1.41931
1.41663
1.41395
1.41125
1.40854
1.40583
1.4031
1.40036
1.39761
1.39485
1.39208
1.3893
1.38651
1.38371
1.3809
1.37807
1.37524
1.37239
1.36954
1.36667
1.36379
1.3609
1.358
1.35509
1.35217
1.34923
1.34629
1.34333
1.34036
1.33738
1.33439
1.33139
1.32837
1.32535
1.32231
1.31926
1.3162
1.31313
1.31004
1.30694
1.30384
1.30072
1.29758
1.29444
1.29128
1.28811
1.28493
1.28174
1.27853
1.27532
1.27209
1.26884
1.26559
1.26232
1.25904
1.25575
1.25244
1.24912
1.24579
1.24245
1.23909
1.23572
1.23234
1.22894
1.22553
1.22211
1.21868
1.21523
1.21177
1.20829
1.2048
1.2013
1.19779
1.19426
1.19071
1.18716
1.18359
1.18
1.17641
1.1728
1.16917
1.16553
1.16188
1.15821
1.15453
1.15084
1.14713
1.1434
1.13966
1.13591
1.13214
1.12836
1.12457
1.12076
1.11693
1.11309
1.10923
1.10536
1.10148
1.09758
1.09367
1.08974
1.08579
1.08183
1.07785
1.07386
1.06986
1.06584
1.0618
1.05775
1.05368
1.04959
1.0455
1.04138
1.03725
1.0331
1.02894
1.02476
1.02056
1.01635
1.01213
1.00788
1.00362
0.999344
0.995051
0.990742
0.986415
0.982073
0.977713
0.973336
0.968943
0.964533
0.960106
0.955662
0.9512
0.946722
0.942226
0.937713
0.933182
0.928635
0.924069
0.919486
0.914885
0.910267
0.905631
0.900977
0.896305
0.891615
0.886907
0.882181
0.877437
0.872674
0.867893
0.863094
0.858276
0.853439
0.848584
0.843711
0.838818
0.833907
0.828976
0.824027
0.819059
0.814072
0.809065
0.804039
0.798994
0.793929
0.788845
0.783741
0.778617
0.773474
0.768311
0.763128
0.757925
0.752703
0.74746
0.742196
0.736913
0.731609
0.726285
0.72094
0.715575
0.710189
0.704782
0.699354
0.693906
0.688437
0.682946
0.677434
0.671901
0.666347
0.660772
0.655175
0.649556
0.643916
0.638254
0.63257
0.626864
0.621137
0.615387
0.609615
0.603821
0.598004
0.592166
0.586304
0.580421
0.574514
0.568585
0.562633
0.556658
0.550659
0.544638
0.538594
0.532526
0.526435
0.520321
0.514183
0.508021
0.501836
0.495627
0.489394
0.483136
0.476855
0.47055
0.46422
0.457866
0.451488
0.445084
0.438657
0.432204
0.425727
0.419224
0.412697
0.406145
0.399567
0.392964
0.386335
0.379681
0.373002
0.366296
0.359565
0.352808
0.346025
0.339215
0.33238
0.325518
0.31863
0.311715
0.304774
0.297805
0.29081
0.283789
0.27674
0.269663
0.26256
0.255429
0.248271
0.241085
0.233872
0.226631
0.219361
0.212064
0.204739
0.197386
0.190004
0.182594
0.175155
0.167688
0.160192
0.152667
0.145113
0.137529
0.129917
0.122276
0.114605
0.106904
0.0991737
0.0914137
0.0836238
0.0758039
0.0679539
0.0600736
0.052163
0.044222
0.0362503
0.028248
0.0202148
0.0121507
0.00405542
2.06885
2.06888
2.06886
2.06877
2.06861
2.06838
2.0681
2.06775
2.06734
2.06686
2.06632
2.06572
2.06505
2.06432
2.06353
2.06267
2.06175
2.06077
2.05973
2.05863
2.05747
2.05625
2.05497
2.05364
2.05225
2.05081
2.04931
2.04777
2.04617
2.04453
2.04283
2.0411
2.03931
2.03749
2.03562
2.03371
2.03177
2.02978
2.02776
2.02571
2.02362
2.02151
2.01936
2.01718
2.01498
2.01275
2.0105
2.00822
2.00593
2.00361
2.00127
1.99892
1.99655
1.99416
1.99176
1.98935
1.98693
1.98449
1.98204
1.97959
1.97712
1.97465
1.97217
1.96969
1.9672
1.96471
1.96222
1.95972
1.95722
1.95472
1.95221
1.94971
1.94721
1.94471
1.94221
1.93971
1.93722
1.93472
1.93223
1.92975
1.92727
1.92479
1.92231
1.91984
1.91738
1.91492
1.91247
1.91002
1.90758
1.90514
1.90271
1.90029
1.89787
1.89546
1.89305
1.89065
1.88826
1.88588
1.8835
1.88113
1.87876
1.8764
1.87405
1.87171
1.86937
1.86704
1.86471
1.8624
1.86008
1.85778
1.85548
1.85319
1.8509
1.84862
1.84635
1.84408
1.84182
1.83957
1.83732
1.83507
1.83283
1.8306
1.82837
1.82615
1.82393
1.82172
1.81952
1.81731
1.81512
1.81292
1.81074
1.80855
1.80637
1.8042
1.80203
1.79986
1.7977
1.79554
1.79338
1.79123
1.78908
1.78694
1.7848
1.78266
1.78052
1.77839
1.77626
1.77414
1.77201
1.76989
1.76778
1.76566
1.76355
1.76144
1.75933
1.75723
1.75512
1.75302
1.75093
1.74883
1.74674
1.74464
1.74256
1.74047
1.73838
1.7363
1.73422
1.73214
1.73006
1.72798
1.72591
1.72384
1.72177
1.7197
1.71763
1.71557
1.71351
1.71144
1.70938
1.70733
1.70527
1.70322
1.70117
1.69912
1.69707
1.69502
1.69297
1.69093
1.68889
1.68685
1.68481
1.68277
1.68074
1.67871
1.67667
1.67464
1.67262
1.67059
1.66856
1.66654
1.66451
1.66249
1.66047
1.65845
1.65643
1.65441
1.6524
1.65038
1.64836
1.64635
1.64433
1.64232
1.6403
1.63829
1.63627
1.63426
1.63225
1.63023
1.62821
1.6262
1.62418
1.62216
1.62014
1.61812
1.6161
1.61408
1.61205
1.61003
1.608
1.60597
1.60393
1.60189
1.59986
1.59781
1.59577
1.59372
1.59167
1.58961
1.58755
1.58548
1.58341
1.58134
1.57926
1.57718
1.57509
1.57299
1.57089
1.56878
1.56667
1.56455
1.56243
1.5603
1.55816
1.55601
1.55386
1.5517
1.54953
1.54735
1.54517
1.54298
1.54078
1.53857
1.53635
1.53413
1.5319
1.52965
1.5274
1.52515
1.52288
1.5206
1.51832
1.51603
1.51372
1.51141
1.50909
1.50676
1.50442
1.50208
1.49972
1.49736
1.49498
1.4926
1.4902
1.4878
1.48539
1.48297
1.48054
1.4781
1.47565
1.47319
1.47072
1.46824
1.46576
1.46326
1.46075
1.45824
1.45571
1.45317
1.45063
1.44807
1.44551
1.44293
1.44035
1.43775
1.43515
1.43254
1.42991
1.42728
1.42463
1.42197
1.41931
1.41663
1.41395
1.41125
1.40854
1.40583
1.4031
1.40036
1.39761
1.39485
1.39208
1.3893
1.38651
1.38371
1.3809
1.37807
1.37524
1.37239
1.36954
1.36667
1.36379
1.3609
1.358
1.35509
1.35217
1.34923
1.34629
1.34333
1.34036
1.33738
1.33439
1.33139
1.32837
1.32535
1.32231
1.31926
1.3162
1.31313
1.31004
1.30694
1.30384
1.30072
1.29758
1.29444
1.29128
1.28811
1.28493
1.28174
1.27853
1.27532
1.27209
1.26884
1.26559
1.26232
1.25904
1.25575
1.25244
1.24912
1.24579
1.24245
1.23909
1.23572
1.23234
1.22894
1.22553
1.22211
1.21868
1.21523
1.21177
1.20829
1.2048
1.2013
1.19779
1.19426
1.19071
1.18716
1.18359
1.18
1.17641
1.1728
1.16917
1.16553
1.16188
1.15821
1.15453
1.15084
1.14713
1.1434
1.13966
1.13591
1.13214
1.12836
1.12457
1.12076
1.11693
1.11309
1.10923
1.10536
1.10148
1.09758
1.09367
1.08974
1.08579
1.08183
1.07785
1.07386
1.06986
1.06584
1.0618
1.05775
1.05368
1.04959
1.0455
1.04138
1.03725
1.0331
1.02894
1.02476
1.02056
1.01635
1.01213
1.00788
1.00362
0.999344
0.995051
0.990742
0.986415
0.982073
0.977713
0.973336
0.968943
0.964533
0.960106
0.955662
0.9512
0.946722
0.942226
0.937713
0.933182
0.928635
0.924069
0.919486
0.914885
0.910267
0.905631
0.900977
0.896305
0.891615
0.886907
0.882181
0.877437
0.872674
0.867893
0.863094
0.858276
0.853439
0.848584
0.843711
0.838818
0.833907
0.828977
0.824027
0.819059
0.814072
0.809065
0.804039
0.798994
0.793929
0.788845
0.783741
0.778617
0.773474
0.768311
0.763128
0.757925
0.752703
0.74746
0.742196
0.736913
0.731609
0.726285
0.72094
0.715575
0.710189
0.704782
0.699354
0.693906
0.688437
0.682946
0.677434
0.671901
0.666347
0.660772
0.655175
0.649556
0.643916
0.638254
0.63257
0.626864
0.621137
0.615387
0.609615
0.603821
0.598004
0.592166
0.586304
0.580421
0.574514
0.568585
0.562633
0.556658
0.550659
0.544638
0.538594
0.532526
0.526435
0.520321
0.514183
0.508021
0.501836
0.495627
0.489394
0.483136
0.476855
0.47055
0.46422
0.457866
0.451488
0.445084
0.438657
0.432204
0.425727
0.419224
0.412697
0.406145
0.399567
0.392964
0.386335
0.379681
0.373002
0.366296
0.359565
0.352808
0.346025
0.339215
0.33238
0.325518
0.31863
0.311715
0.304774
0.297805
0.29081
0.283789
0.27674
0.269663
0.26256
0.255429
0.248271
0.241085
0.233872
0.226631
0.219361
0.212064
0.204739
0.197386
0.190004
0.182594
0.175155
0.167688
0.160192
0.152667
0.145113
0.137529
0.129917
0.122276
0.114605
0.106904
0.0991737
0.0914137
0.0836238
0.0758039
0.0679539
0.0600736
0.052163
0.044222
0.0362503
0.028248
0.0202148
0.0121507
0.00405541
2.07116
2.0712
2.07117
2.07107
2.0709
2.07067
2.07036
2.07
2.06956
2.06906
2.06849
2.06785
2.06714
2.06637
2.06553
2.06463
2.06366
2.06263
2.06154
2.06038
2.05916
2.05788
2.05655
2.05515
2.0537
2.0522
2.05064
2.04903
2.04737
2.04566
2.0439
2.0421
2.04025
2.03836
2.03643
2.03446
2.03246
2.03041
2.02833
2.02622
2.02408
2.02191
2.01971
2.01748
2.01523
2.01295
2.01065
2.00833
2.006
2.00364
2.00126
1.99887
1.99646
1.99404
1.99161
1.98917
1.98671
1.98425
1.98178
1.9793
1.97681
1.97432
1.97182
1.96932
1.96681
1.9643
1.96179
1.95928
1.95677
1.95426
1.95174
1.94923
1.94672
1.94422
1.94171
1.93921
1.93671
1.93421
1.93172
1.92923
1.92674
1.92426
1.92179
1.91932
1.91686
1.9144
1.91195
1.9095
1.90706
1.90463
1.9022
1.89978
1.89736
1.89496
1.89256
1.89016
1.88777
1.88539
1.88302
1.88065
1.87829
1.87594
1.8736
1.87126
1.86892
1.8666
1.86428
1.86197
1.85966
1.85736
1.85507
1.85279
1.85051
1.84823
1.84597
1.8437
1.84145
1.8392
1.83696
1.83472
1.83248
1.83026
1.82804
1.82582
1.82361
1.8214
1.8192
1.817
1.81481
1.81262
1.81044
1.80826
1.80609
1.80392
1.80175
1.79959
1.79743
1.79528
1.79313
1.79098
1.78884
1.7867
1.78456
1.78243
1.78029
1.77817
1.77604
1.77392
1.7718
1.76968
1.76757
1.76546
1.76335
1.76124
1.75914
1.75704
1.75494
1.75284
1.75074
1.74865
1.74656
1.74447
1.74239
1.7403
1.73822
1.73614
1.73406
1.73198
1.72991
1.72783
1.72576
1.72369
1.72162
1.71956
1.71749
1.71543
1.71337
1.71131
1.70925
1.7072
1.70514
1.70309
1.70104
1.69899
1.69695
1.6949
1.69286
1.69082
1.68878
1.68674
1.6847
1.68267
1.68063
1.6786
1.67657
1.67454
1.67252
1.67049
1.66847
1.66645
1.66442
1.6624
1.66038
1.65837
1.65635
1.65433
1.65232
1.6503
1.64829
1.64628
1.64426
1.64225
1.64024
1.63822
1.63621
1.6342
1.63219
1.63017
1.62816
1.62614
1.62413
1.62211
1.6201
1.61808
1.61606
1.61404
1.61201
1.60999
1.60796
1.60593
1.6039
1.60186
1.59982
1.59778
1.59574
1.59369
1.59164
1.58958
1.58753
1.58546
1.58339
1.58132
1.57924
1.57716
1.57507
1.57298
1.57088
1.56877
1.56666
1.56454
1.56242
1.56029
1.55815
1.556
1.55385
1.55169
1.54952
1.54735
1.54516
1.54297
1.54077
1.53857
1.53635
1.53413
1.5319
1.52965
1.5274
1.52515
1.52288
1.5206
1.51832
1.51603
1.51372
1.51141
1.50909
1.50676
1.50442
1.50208
1.49972
1.49736
1.49498
1.4926
1.4902
1.4878
1.48539
1.48297
1.48054
1.4781
1.47565
1.47319
1.47072
1.46824
1.46576
1.46326
1.46075
1.45824
1.45571
1.45317
1.45063
1.44807
1.44551
1.44293
1.44035
1.43775
1.43515
1.43254
1.42991
1.42728
1.42463
1.42197
1.41931
1.41663
1.41395
1.41125
1.40854
1.40583
1.4031
1.40036
1.39761
1.39485
1.39208
1.3893
1.38651
1.38371
1.3809
1.37807
1.37524
1.37239
1.36954
1.36667
1.36379
1.3609
1.358
1.35509
1.35217
1.34923
1.34629
1.34333
1.34036
1.33738
1.33439
1.33139
1.32837
1.32535
1.32231
1.31926
1.3162
1.31313
1.31004
1.30694
1.30384
1.30072
1.29758
1.29444
1.29128
1.28811
1.28493
1.28174
1.27853
1.27532
1.27209
1.26884
1.26559
1.26232
1.25904
1.25575
1.25244
1.24912
1.24579
1.24245
1.23909
1.23572
1.23234
1.22894
1.22553
1.22211
1.21868
1.21523
1.21177
1.20829
1.2048
1.2013
1.19779
1.19426
1.19071
1.18716
1.18359
1.18
1.17641
1.1728
1.16917
1.16553
1.16188
1.15821
1.15453
1.15084
1.14713
1.1434
1.13966
1.13591
1.13214
1.12836
1.12457
1.12076
1.11693
1.11309
1.10923
1.10536
1.10148
1.09758
1.09367
1.08974
1.08579
1.08183
1.07785
1.07386
1.06986
1.06584
1.0618
1.05775
1.05368
1.04959
1.0455
1.04138
1.03725
1.0331
1.02894
1.02476
1.02056
1.01635
1.01213
1.00788
1.00362
0.999344
0.995051
0.990742
0.986415
0.982073
0.977713
0.973336
0.968943
0.964533
0.960106
0.955662
0.9512
0.946722
0.942226
0.937713
0.933182
0.928635
0.924069
0.919486
0.914885
0.910267
0.905631
0.900977
0.896305
0.891615
0.886907
0.882181
0.877437
0.872674
0.867893
0.863094
0.858276
0.853439
0.848584
0.843711
0.838818
0.833907
0.828977
0.824027
0.819059
0.814072
0.809065
0.804039
0.798994
0.793929
0.788845
0.783741
0.778617
0.773474
0.768311
0.763128
0.757925
0.752703
0.74746
0.742196
0.736913
0.731609
0.726285
0.72094
0.715575
0.710189
0.704782
0.699354
0.693906
0.688437
0.682946
0.677434
0.671901
0.666347
0.660772
0.655175
0.649556
0.643916
0.638254
0.63257
0.626864
0.621137
0.615387
0.609615
0.603821
0.598004
0.592166
0.586304
0.580421
0.574514
0.568585
0.562633
0.556658
0.550659
0.544638
0.538594
0.532526
0.526435
0.520321
0.514183
0.508021
0.501836
0.495627
0.489394
0.483136
0.476855
0.47055
0.46422
0.457866
0.451488
0.445084
0.438657
0.432204
0.425727
0.419224
0.412697
0.406145
0.399567
0.392964
0.386335
0.379681
0.373002
0.366296
0.359565
0.352808
0.346025
0.339215
0.33238
0.325518
0.31863
0.311715
0.304774
0.297805
0.29081
0.283789
0.27674
0.269663
0.26256
0.255429
0.248271
0.241085
0.233872
0.226631
0.219361
0.212064
0.204739
0.197386
0.190004
0.182594
0.175155
0.167688
0.160192
0.152667
0.145113
0.137529
0.129917
0.122276
0.114605
0.106904
0.0991737
0.0914137
0.0836238
0.0758039
0.0679539
0.0600736
0.052163
0.044222
0.0362503
0.028248
0.0202148
0.0121507
0.00405541
2.07413
2.07416
2.07413
2.07403
2.07384
2.07359
2.07327
2.07287
2.0724
2.07186
2.07125
2.07057
2.06981
2.06899
2.0681
2.06713
2.0661
2.065
2.06383
2.0626
2.06131
2.05996
2.05854
2.05707
2.05553
2.05394
2.0523
2.05061
2.04886
2.04707
2.04523
2.04334
2.04141
2.03944
2.03743
2.03538
2.0333
2.03118
2.02902
2.02684
2.02463
2.02239
2.02012
2.01783
2.01551
2.01318
2.01082
2.00844
2.00605
2.00364
2.00122
1.99878
1.99633
1.99386
1.99139
1.98891
1.98642
1.98392
1.98142
1.97891
1.97639
1.97387
1.97135
1.96883
1.9663
1.96377
1.96124
1.95872
1.95619
1.95366
1.95114
1.94862
1.9461
1.94358
1.94107
1.93856
1.93605
1.93355
1.93106
1.92857
1.92608
1.9236
1.92112
1.91866
1.91619
1.91374
1.91129
1.90884
1.90641
1.90398
1.90155
1.89914
1.89673
1.89433
1.89193
1.88954
1.88716
1.88479
1.88242
1.88006
1.87771
1.87536
1.87302
1.87069
1.86837
1.86605
1.86374
1.86143
1.85913
1.85684
1.85456
1.85228
1.85001
1.84774
1.84548
1.84323
1.84098
1.83874
1.8365
1.83427
1.83205
1.82983
1.82761
1.82541
1.8232
1.821
1.81881
1.81662
1.81443
1.81225
1.81008
1.8079
1.80574
1.80357
1.80141
1.79926
1.7971
1.79496
1.79281
1.79067
1.78853
1.7864
1.78426
1.78214
1.78001
1.77789
1.77577
1.77365
1.77154
1.76942
1.76731
1.76521
1.7631
1.761
1.7589
1.7568
1.75471
1.75261
1.75052
1.74843
1.74635
1.74426
1.74218
1.74009
1.73802
1.73594
1.73386
1.73179
1.72972
1.72764
1.72558
1.72351
1.72144
1.71938
1.71732
1.71526
1.7132
1.71114
1.70909
1.70704
1.70499
1.70294
1.70089
1.69884
1.6968
1.69476
1.69272
1.69068
1.68864
1.6866
1.68457
1.68254
1.68051
1.67848
1.67645
1.67442
1.6724
1.67038
1.66835
1.66633
1.66431
1.6623
1.66028
1.65826
1.65625
1.65424
1.65222
1.65021
1.6482
1.64619
1.64418
1.64217
1.64016
1.63815
1.63614
1.63413
1.63211
1.6301
1.62809
1.62608
1.62407
1.62205
1.62004
1.61802
1.616
1.61398
1.61196
1.60994
1.60791
1.60589
1.60385
1.60182
1.59979
1.59775
1.5957
1.59366
1.59161
1.58956
1.5875
1.58544
1.58337
1.5813
1.57922
1.57714
1.57506
1.57296
1.57087
1.56876
1.56665
1.56453
1.56241
1.56028
1.55814
1.556
1.55385
1.55169
1.54952
1.54734
1.54516
1.54297
1.54077
1.53857
1.53635
1.53413
1.53189
1.52965
1.5274
1.52515
1.52288
1.5206
1.51832
1.51603
1.51372
1.51141
1.50909
1.50676
1.50443
1.50208
1.49972
1.49736
1.49498
1.4926
1.4902
1.4878
1.48539
1.48297
1.48054
1.4781
1.47565
1.47319
1.47072
1.46824
1.46576
1.46326
1.46075
1.45824
1.45571
1.45317
1.45063
1.44807
1.44551
1.44293
1.44035
1.43775
1.43515
1.43254
1.42991
1.42728
1.42463
1.42197
1.41931
1.41663
1.41395
1.41125
1.40854
1.40583
1.4031
1.40036
1.39761
1.39485
1.39208
1.3893
1.38651
1.38371
1.3809
1.37807
1.37524
1.37239
1.36954
1.36667
1.36379
1.3609
1.358
1.35509
1.35217
1.34923
1.34629
1.34333
1.34036
1.33738
1.33439
1.33139
1.32837
1.32535
1.32231
1.31926
1.3162
1.31313
1.31004
1.30694
1.30384
1.30072
1.29758
1.29444
1.29128
1.28811
1.28493
1.28174
1.27853
1.27532
1.27209
1.26884
1.26559
1.26232
1.25904
1.25575
1.25244
1.24912
1.24579
1.24245
1.23909
1.23572
1.23234
1.22894
1.22553
1.22211
1.21868
1.21523
1.21177
1.20829
1.2048
1.2013
1.19779
1.19426
1.19071
1.18716
1.18359
1.18
1.17641
1.1728
1.16917
1.16553
1.16188
1.15821
1.15453
1.15084
1.14713
1.1434
1.13966
1.13591
1.13214
1.12836
1.12457
1.12076
1.11693
1.11309
1.10923
1.10536
1.10148
1.09758
1.09367
1.08974
1.08579
1.08183
1.07785
1.07386
1.06986
1.06584
1.0618
1.05775
1.05368
1.04959
1.0455
1.04138
1.03725
1.0331
1.02894
1.02476
1.02056
1.01635
1.01213
1.00788
1.00362
0.999344
0.995051
0.990742
0.986415
0.982073
0.977713
0.973336
0.968943
0.964533
0.960106
0.955662
0.9512
0.946722
0.942226
0.937713
0.933182
0.928635
0.924069
0.919486
0.914885
0.910267
0.905631
0.900977
0.896305
0.891615
0.886907
0.882181
0.877437
0.872674
0.867893
0.863094
0.858276
0.853439
0.848584
0.843711
0.838818
0.833907
0.828977
0.824027
0.819059
0.814072
0.809065
0.804039
0.798994
0.793929
0.788845
0.783741
0.778617
0.773474
0.768311
0.763128
0.757925
0.752703
0.74746
0.742196
0.736913
0.731609
0.726285
0.72094
0.715575
0.710189
0.704782
0.699354
0.693906
0.688437
0.682946
0.677434
0.671901
0.666347
0.660772
0.655175
0.649556
0.643916
0.638254
0.63257
0.626864
0.621137
0.615387
0.609615
0.603821
0.598004
0.592166
0.586304
0.580421
0.574514
0.568585
0.562633
0.556658
0.550659
0.544638
0.538594
0.532526
0.526435
0.520321
0.514183
0.508021
0.501836
0.495627
0.489394
0.483136
0.476855
0.47055
0.46422
0.457866
0.451488
0.445084
0.438657
0.432204
0.425727
0.419224
0.412697
0.406145
0.399567
0.392964
0.386335
0.379681
0.373002
0.366296
0.359565
0.352808
0.346025
0.339215
0.33238
0.325518
0.31863
0.311715
0.304774
0.297805
0.29081
0.283789
0.27674
0.269663
0.26256
0.255429
0.248271
0.241085
0.233872
0.226631
0.219361
0.212064
0.204739
0.197386
0.190004
0.182594
0.175155
0.167688
0.160192
0.152667
0.145113
0.137529
0.129917
0.122276
0.114605
0.106904
0.0991737
0.0914137
0.0836238
0.0758039
0.0679539
0.0600736
0.052163
0.044222
0.0362503
0.028248
0.0202148
0.0121507
0.0040554
2.07771
2.07775
2.07772
2.0776
2.0774
2.07713
2.07677
2.07634
2.07584
2.07525
2.07459
2.07385
2.07303
2.07214
2.07117
2.07013
2.06901
2.06783
2.06658
2.06525
2.06387
2.06242
2.0609
2.05933
2.05769
2.056
2.05426
2.05246
2.05061
2.04871
2.04677
2.04478
2.04275
2.04068
2.03857
2.03643
2.03425
2.03204
2.02979
2.02752
2.02523
2.0229
2.02056
2.01819
2.0158
2.01339
2.01097
2.00852
2.00607
2.0036
2.00112
1.99862
1.99612
1.99361
1.99109
1.98856
1.98603
1.9835
1.98096
1.97841
1.97587
1.97332
1.97077
1.96822
1.96567
1.96312
1.96057
1.95803
1.95548
1.95294
1.9504
1.94787
1.94534
1.94281
1.94029
1.93778
1.93527
1.93276
1.93026
1.92777
1.92528
1.9228
1.92033
1.91786
1.9154
1.91295
1.9105
1.90806
1.90563
1.9032
1.90078
1.89837
1.89597
1.89358
1.89119
1.88881
1.88643
1.88407
1.88171
1.87936
1.87701
1.87468
1.87235
1.87002
1.86771
1.8654
1.8631
1.8608
1.85851
1.85623
1.85396
1.85169
1.84942
1.84717
1.84492
1.84267
1.84044
1.8382
1.83598
1.83375
1.83154
1.82933
1.82712
1.82492
1.82273
1.82054
1.81835
1.81617
1.81399
1.81182
1.80965
1.80749
1.80533
1.80317
1.80102
1.79887
1.79672
1.79458
1.79244
1.79031
1.78818
1.78605
1.78392
1.7818
1.77968
1.77756
1.77545
1.77334
1.77123
1.76912
1.76702
1.76492
1.76282
1.76072
1.75863
1.75653
1.75444
1.75235
1.75027
1.74818
1.7461
1.74402
1.74194
1.73986
1.73778
1.73571
1.73364
1.73157
1.7295
1.72743
1.72537
1.7233
1.72124
1.71918
1.71712
1.71507
1.71301
1.71096
1.70891
1.70686
1.70481
1.70276
1.70072
1.69867
1.69663
1.69459
1.69255
1.69052
1.68848
1.68645
1.68442
1.68239
1.68036
1.67833
1.67631
1.67429
1.67226
1.67024
1.66823
1.66621
1.66419
1.66218
1.66016
1.65815
1.65614
1.65413
1.65212
1.65011
1.6481
1.64609
1.64408
1.64207
1.64007
1.63806
1.63605
1.63404
1.63203
1.63003
1.62802
1.62601
1.624
1.62199
1.61997
1.61796
1.61594
1.61393
1.61191
1.60989
1.60786
1.60584
1.60381
1.60178
1.59974
1.59771
1.59567
1.59362
1.59158
1.58953
1.58747
1.58541
1.58335
1.58128
1.5792
1.57712
1.57504
1.57295
1.57085
1.56875
1.56664
1.56452
1.5624
1.56027
1.55813
1.55599
1.55384
1.55168
1.54951
1.54734
1.54516
1.54297
1.54077
1.53856
1.53635
1.53413
1.53189
1.52965
1.5274
1.52515
1.52288
1.5206
1.51832
1.51603
1.51372
1.51141
1.50909
1.50676
1.50443
1.50208
1.49972
1.49736
1.49498
1.4926
1.4902
1.4878
1.48539
1.48297
1.48054
1.4781
1.47565
1.47319
1.47072
1.46824
1.46576
1.46326
1.46075
1.45824
1.45571
1.45317
1.45063
1.44807
1.44551
1.44293
1.44035
1.43775
1.43515
1.43254
1.42991
1.42728
1.42463
1.42197
1.41931
1.41663
1.41395
1.41125
1.40854
1.40583
1.4031
1.40036
1.39761
1.39485
1.39208
1.3893
1.38651
1.38371
1.3809
1.37807
1.37524
1.37239
1.36954
1.36667
1.36379
1.3609
1.358
1.35509
1.35217
1.34923
1.34629
1.34333
1.34036
1.33738
1.33439
1.33139
1.32837
1.32535
1.32231
1.31926
1.3162
1.31313
1.31004
1.30694
1.30384
1.30072
1.29758
1.29444
1.29128
1.28811
1.28493
1.28174
1.27853
1.27532
1.27209
1.26884
1.26559
1.26232
1.25904
1.25575
1.25244
1.24912
1.24579
1.24245
1.23909
1.23572
1.23234
1.22894
1.22553
1.22211
1.21868
1.21523
1.21177
1.20829
1.2048
1.2013
1.19779
1.19426
1.19071
1.18716
1.18359
1.18
1.17641
1.1728
1.16917
1.16553
1.16188
1.15821
1.15453
1.15084
1.14713
1.1434
1.13966
1.13591
1.13214
1.12836
1.12457
1.12076
1.11693
1.11309
1.10923
1.10536
1.10148
1.09758
1.09367
1.08974
1.08579
1.08183
1.07785
1.07386
1.06986
1.06584
1.0618
1.05775
1.05368
1.04959
1.0455
1.04138
1.03725
1.0331
1.02894
1.02476
1.02056
1.01635
1.01213
1.00788
1.00362
0.999344
0.995051
0.990742
0.986415
0.982073
0.977713
0.973336
0.968943
0.964533
0.960106
0.955662
0.9512
0.946722
0.942226
0.937713
0.933182
0.928635
0.924069
0.919486
0.914885
0.910267
0.905631
0.900977
0.896305
0.891615
0.886907
0.882181
0.877437
0.872674
0.867893
0.863094
0.858276
0.853439
0.848584
0.843711
0.838818
0.833907
0.828977
0.824027
0.819059
0.814072
0.809065
0.804039
0.798994
0.793929
0.788845
0.783741
0.778617
0.773474
0.768311
0.763128
0.757925
0.752703
0.74746
0.742196
0.736913
0.731609
0.726285
0.72094
0.715575
0.710189
0.704782
0.699354
0.693906
0.688437
0.682946
0.677434
0.671901
0.666347
0.660772
0.655175
0.649556
0.643916
0.638254
0.63257
0.626864
0.621137
0.615387
0.609615
0.603821
0.598004
0.592166
0.586304
0.580421
0.574514
0.568585
0.562633
0.556658
0.550659
0.544638
0.538594
0.532526
0.526435
0.520321
0.514183
0.508021
0.501836
0.495627
0.489394
0.483136
0.476855
0.47055
0.46422
0.457866
0.451488
0.445084
0.438657
0.432204
0.425727
0.419225
0.412697
0.406145
0.399567
0.392964
0.386335
0.379681
0.373002
0.366296
0.359565
0.352808
0.346025
0.339215
0.33238
0.325518
0.31863
0.311715
0.304774
0.297805
0.29081
0.283789
0.27674
0.269663
0.26256
0.255429
0.248271
0.241085
0.233872
0.226631
0.219361
0.212064
0.204739
0.197386
0.190004
0.182594
0.175155
0.167688
0.160192
0.152667
0.145113
0.137529
0.129917