/*--------------------------------*- C++ -*----------------------------------*\
  =========                 |
  \\      /  F ield         | OpenFOAM: The Open Source CFD Toolbox
   \\    /   O peration     | Website:  https://openfoam.org
    \\  /    A nd           | Version:  7
     \\/     M anipulation  |
\*---------------------------------------------------------------------------*/
FoamFile
{
    version     2.0;
    format      ascii;
    class       surfaceScalarField;
    location    "2";
    object      phi;
}
// * * * * * * * * * * * * * * * * * * * * * * * * * * * * * * * * * * * * * //

dimensions      [0 3 -1 0 0 0 0];

internalField   nonuniform List<scalar> 
95320
(
0.00250152
-7.10042e-08
1.15243e-14
0.00250174
-2.14563e-07
3.86484e-14
0.0025021
-3.59891e-07
4.69544e-14
0.0025026
-5.067e-07
4.18182e-14
0.00250326
-6.54785e-07
3.44185e-14
0.00250406
-8.03939e-07
2.62781e-14
0.00250502
-9.53951e-07
1.7805e-14
0.00250612
-1.1046e-06
9.18241e-15
0.00250738
-1.25567e-06
3.08728e-16
0.00250878
-1.40694e-06
-8.66692e-15
0.00251034
-1.55817e-06
-1.7592e-14
0.00251205
-1.70915e-06
-2.6409e-14
0.00251391
-1.85964e-06
-3.49609e-14
0.00251592
-2.00943e-06
-4.30936e-14
0.00251808
-2.15829e-06
-5.05058e-14
0.00252038
-2.30601e-06
-5.70203e-14
0.00252284
-2.45237e-06
-6.26047e-14
0.00252543
-2.59716e-06
-6.74679e-14
0.00252817
-2.74018e-06
-7.1859e-14
0.00253105
-2.88124e-06
-7.59167e-14
0.00253407
-3.02015e-06
-7.96643e-14
0.00253723
-3.15674e-06
-8.30673e-14
0.00254052
-3.29082e-06
-8.62407e-14
0.00254394
-3.42225e-06
-8.93773e-14
0.0025475
-3.55087e-06
-9.26018e-14
0.00255117
-3.67655e-06
-9.59176e-14
0.00255497
-3.79916e-06
-9.91594e-14
0.00255889
-3.91858e-06
-1.02069e-13
0.00256292
-4.03471e-06
-1.04482e-13
0.00256707
-4.14745e-06
-1.06455e-13
0.00257133
-4.25673e-06
-1.08305e-13
0.00257569
-4.36246e-06
-1.10492e-13
0.00258016
-4.4646e-06
-1.13343e-13
0.00258472
-4.56309e-06
-1.16929e-13
0.00258938
-4.6579e-06
-1.21125e-13
0.00259413
-4.74901e-06
-1.25692e-13
0.00259896
-4.83638e-06
-1.30356e-13
0.00260388
-4.92003e-06
-1.34811e-13
0.00260888
-4.99995e-06
-1.38638e-13
0.00261396
-5.07616e-06
-1.41216e-13
0.00261911
-5.14867e-06
-1.4189e-13
0.00262432
-5.21752e-06
-1.40249e-13
0.00262961
-5.28274e-06
-1.36294e-13
0.00263495
-5.34438e-06
-1.30353e-13
0.00264035
-5.40249e-06
-1.22912e-13
0.00264581
-5.45712e-06
-1.14458e-13
0.00265132
-5.50835e-06
-1.05454e-13
0.00265688
-5.55622e-06
-9.64409e-14
0.00266248
-5.60083e-06
-8.80799e-14
0.00266812
-5.64223e-06
-8.10897e-14
0.0026738
-5.68052e-06
-7.59576e-14
0.00267951
-5.71578e-06
-7.2836e-14
0.00268526
-5.74808e-06
-7.15479e-14
0.00269104
-5.77752e-06
-7.17606e-14
0.00269684
-5.80419e-06
-7.31025e-14
0.00270267
-5.82818e-06
-7.51197e-14
0.00270852
-5.84957e-06
-7.72692e-14
0.00271439
-5.86847e-06
-7.87484e-14
0.00272028
-5.88496e-06
-7.84226e-14
0.00272617
-5.89913e-06
-7.53445e-14
0.00273209
-5.91108e-06
-6.91768e-14
0.00273801
-5.92089e-06
-5.97663e-14
0.00274394
-5.92867e-06
-4.72911e-14
0.00274987
-5.93449e-06
-3.22338e-14
0.00275581
-5.93844e-06
-1.57864e-14
0.00276175
-5.94062e-06
-5.62291e-16
0.00276769
-5.94111e-06
1.55707e-14
0.00277363
-5.93999e-06
2.9271e-14
0.00277957
-5.93734e-06
3.98544e-14
0.0027855
-5.93324e-06
4.6947e-14
0.00279143
-5.92777e-06
5.07491e-14
0.00279735
-5.92101e-06
5.21198e-14
0.00280326
-5.91302e-06
5.24817e-14
0.00280917
-5.90388e-06
5.36682e-14
0.00281506
-5.89366e-06
5.76416e-14
0.00282094
-5.88242e-06
6.55483e-14
0.00282681
-5.87023e-06
7.79474e-14
0.00283267
-5.85715e-06
9.49104e-14
0.00283851
-5.84323e-06
1.16071e-13
0.00284434
-5.82854e-06
1.4057e-13
0.00285015
-5.81312e-06
1.67044e-13
0.00285595
-5.79703e-06
1.93792e-13
0.00286173
-5.78033e-06
2.19051e-13
0.0028675
-5.76305e-06
2.41172e-13
0.00287324
-5.74524e-06
2.59102e-13
0.00287897
-5.72694e-06
2.72441e-13
0.00288468
-5.7082e-06
2.81156e-13
0.00289036
-5.68905e-06
2.85413e-13
0.00289603
-5.66953e-06
2.85559e-13
0.00290168
-5.64968e-06
2.8218e-13
0.00290731
-5.62952e-06
2.76239e-13
0.00291292
-5.60909e-06
2.69279e-13
0.00291851
-5.58842e-06
2.63091e-13
0.00292408
-5.56752e-06
2.59349e-13
0.00292962
-5.54644e-06
2.5944e-13
0.00293515
-5.52518e-06
2.64272e-13
0.00294065
-5.50378e-06
2.74117e-13
0.00294614
-5.48225e-06
2.88481e-13
0.0029516
-5.46061e-06
3.06089e-13
0.00295704
-5.43887e-06
3.25039e-13
0.00296245
-5.41706e-06
3.43144e-13
0.00296785
-5.39519e-06
3.58534e-13
0.00297322
-5.37326e-06
3.69848e-13
0.00297857
-5.3513e-06
3.76506e-13
0.0029839
-5.32931e-06
3.78797e-13
0.00298921
-5.30731e-06
3.77699e-13
0.00299449
-5.28529e-06
3.74564e-13
0.00299976
-5.26327e-06
3.70905e-13
0.003005
-5.24125e-06
3.67899e-13
0.00301022
-5.21923e-06
3.66113e-13
0.00301542
-5.19723e-06
3.65406e-13
0.00302059
-5.17525e-06
3.6512e-13
0.00302574
-5.15328e-06
3.64416e-13
0.00303088
-5.13133e-06
3.62651e-13
0.00303598
-5.10939e-06
3.59607e-13
0.00304107
-5.08748e-06
3.55539e-13
0.00304614
-5.06559e-06
3.51071e-13
0.00305118
-5.04371e-06
3.4688e-13
0.0030562
-5.02185e-06
3.43426e-13
0.0030612
-5e-06
3.40706e-13
0.00306618
-4.97816e-06
3.38105e-13
0.00307114
-4.95632e-06
3.34524e-13
0.00307607
-4.93448e-06
3.28655e-13
0.00308098
-4.91264e-06
3.19386e-13
0.00308588
-4.89079e-06
3.06154e-13
0.00309074
-4.86893e-06
2.89096e-13
0.00309559
-4.84704e-06
2.68975e-13
0.00310042
-4.82512e-06
2.46943e-13
0.00310522
-4.80317e-06
2.24182e-13
0.00311
-4.78117e-06
2.01566e-13
0.00311476
-4.75913e-06
1.79447e-13
0.0031195
-4.73702e-06
1.57683e-13
0.00312421
-4.71484e-06
1.35977e-13
0.0031289
-4.69259e-06
1.14627e-13
0.00313357
-4.67025e-06
9.50061e-14
0.00313822
-4.64781e-06
7.87222e-14
0.00314285
-4.62526e-06
6.77287e-14
0.00314745
-4.6026e-06
5.97965e-14
0.00315203
-4.57981e-06
5.41203e-14
0.00315659
-4.55688e-06
5.19405e-14
0.00316112
-4.5338e-06
5.1307e-14
0.00316563
-4.51056e-06
4.91637e-14
0.00317012
-4.48714e-06
4.08737e-14
0.00317458
-4.46354e-06
2.87407e-14
0.00317902
-4.43974e-06
5.37479e-15
0.00318344
-4.41572e-06
-2.75493e-14
0.00318783
-4.39149e-06
-6.97509e-14
0.0031922
-4.36701e-06
-1.19365e-13
0.00319654
-4.34228e-06
-1.72346e-13
0.00320086
-4.31729e-06
-2.2297e-13
0.00320515
-4.29202e-06
-2.67716e-13
0.00320941
-4.26646e-06
-3.04786e-13
0.00321365
-4.24059e-06
-3.33639e-13
0.00321787
-4.2144e-06
-3.54889e-13
0.00322206
-4.18788e-06
-3.69905e-13
0.00322622
-4.161e-06
-3.80362e-13
0.00323035
-4.13375e-06
-3.87902e-13
0.00323446
-4.10613e-06
-3.93982e-13
0.00323854
-4.07811e-06
-3.99985e-13
0.00324259
-4.04969e-06
-4.0734e-13
0.00324661
-4.02083e-06
-4.17486e-13
0.0032506
-3.99154e-06
-4.31925e-13
0.00325456
-3.9618e-06
-4.51234e-13
0.00325849
-3.93158e-06
-4.74926e-13
0.00326239
-3.90089e-06
-5.01558e-13
0.00326626
-3.8697e-06
-5.28152e-13
0.0032701
-3.838e-06
-5.51057e-13
0.00327391
-3.80578e-06
-5.67167e-13
0.00327768
-3.77303e-06
-5.74411e-13
0.00328142
-3.73973e-06
-5.72175e-13
0.00328512
-3.70588e-06
-5.61484e-13
0.0032888
-3.67146e-06
-5.44853e-13
0.00329243
-3.63647e-06
-5.25855e-13
0.00329603
-3.6009e-06
-5.08436e-13
0.0032996
-3.56473e-06
-4.95923e-13
0.00330313
-3.52798e-06
-4.90185e-13
0.00330662
-3.49062e-06
-4.91234e-13
0.00331007
-3.45266e-06
-4.97471e-13
0.00331348
-3.4141e-06
-5.06375e-13
0.00331686
-3.37494e-06
-5.15326e-13
0.00332019
-3.33517e-06
-5.22361e-13
0.00332349
-3.29481e-06
-5.26355e-13
0.00332674
-3.25386e-06
-5.26887e-13
0.00332995
-3.21232e-06
-5.23894e-13
0.00333312
-3.1702e-06
-5.17363e-13
0.00333625
-3.12752e-06
-5.07202e-13
0.00333934
-3.08428e-06
-4.93384e-13
0.00334238
-3.0405e-06
-4.76251e-13
0.00334537
-2.9962e-06
-4.56837e-13
0.00334832
-2.95139e-06
-4.37038e-13
0.00335123
-2.90609e-06
-4.1951e-13
0.00335409
-2.86033e-06
-4.07384e-13
0.00335691
-2.81412e-06
-4.0346e-13
0.00335967
-2.76748e-06
-4.09038e-13
0.00336239
-2.72044e-06
-4.22423e-13
0.00336507
-2.67302e-06
-4.39697e-13
0.00336769
-2.62525e-06
-4.56751e-13
0.00337027
-2.57715e-06
-4.69181e-13
0.0033728
-2.52874e-06
-4.73334e-13
0.00337528
-2.48004e-06
-4.67329e-13
0.00337771
-2.43109e-06
-4.51681e-13
0.00338009
-2.3819e-06
-4.28629e-13
0.00338242
-2.33249e-06
-4.01949e-13
0.00338471
-2.28287e-06
-3.76228e-13
0.00338694
-2.23308e-06
-3.5612e-13
0.00338912
-2.18312e-06
-3.45224e-13
0.00339125
-2.133e-06
-3.45385e-13
0.00339334
-2.08274e-06
-3.56782e-13
0.00339537
-2.03235e-06
-3.77794e-13
0.00339735
-1.98183e-06
-4.06144e-13
0.00339928
-1.9312e-06
-4.39473e-13
0.00340116
-1.88045e-06
-4.75366e-13
0.00340299
-1.82959e-06
-5.11302e-13
0.00340477
-1.77863e-06
-5.45203e-13
0.0034065
-1.72756e-06
-5.7522e-13
0.00340818
-1.6764e-06
-5.99848e-13
0.0034098
-1.62514e-06
-6.18193e-13
0.00341137
-1.5738e-06
-6.30219e-13
0.0034129
-1.52237e-06
-6.36917e-13
0.00341437
-1.47088e-06
-6.40141e-13
0.00341579
-1.41934e-06
-6.42091e-13
0.00341715
-1.36777e-06
-6.44728e-13
0.00341847
-1.31619e-06
-6.4897e-13
0.00341974
-1.26463e-06
-6.54372e-13
0.00342095
-1.21314e-06
-6.59417e-13
0.00342211
-1.16175e-06
-6.61934e-13
0.00342322
-1.11052e-06
-6.59678e-13
0.00342428
-1.05951e-06
-6.50853e-13
0.00342529
-1.00878e-06
-6.34409e-13
0.00342625
-9.58402e-07
-6.10173e-13
0.00342716
-9.08459e-07
-5.78689e-13
0.00342802
-8.59035e-07
-5.40966e-13
0.00342883
-8.10222e-07
-4.98184e-13
0.00342959
-7.62118e-07
-4.51479e-13
0.0034303
-7.14821e-07
-4.0181e-13
0.00343097
-6.68435e-07
-3.49973e-13
0.00343159
-6.23065e-07
-2.96804e-13
0.00343217
-5.78815e-07
-2.43249e-13
0.00343271
-5.35789e-07
-1.85833e-13
0.0034332
-4.94086e-07
-1.31737e-13
0.00343366
-4.53803e-07
-7.00543e-14
0.00343407
-4.1503e-07
-1.10345e-17
0.00343445
-3.77851e-07
6.8034e-14
0.00343479
-3.42339e-07
1.40266e-13
0.0034351
-3.08561e-07
2.17056e-13
0.00343538
-2.76569e-07
2.98038e-13
0.00343562
-2.46407e-07
3.82043e-13
0.00343584
-2.18105e-07
4.67496e-13
0.00343603
-1.9168e-07
5.52779e-13
0.0034362
-1.67137e-07
6.36275e-13
0.00343634
-1.44466e-07
7.16305e-13
0.00343647
-1.23648e-07
7.91244e-13
0.00343657
-1.04648e-07
8.59874e-13
0.00343666
-8.74211e-08
9.2175e-13
0.00343673
-7.19107e-08
9.76965e-13
0.00343679
-5.8051e-08
1.02537e-12
0.00343684
-4.5767e-08
1.06669e-12
0.00343687
-3.49765e-08
1.10104e-12
0.0034369
-2.55909e-08
1.12827e-12
0.00343691
-1.75168e-08
1.14816e-12
0.00343692
-1.06574e-08
1.16027e-12
0.00343693
-4.914e-09
1.16441e-12
0.00343693
-1.86631e-10
1.16149e-12
0.00343693
3.62345e-09
1.15197e-12
0.00343692
6.61373e-09
1.13629e-12
0.00343691
8.87887e-09
1.1145e-12
0.0034369
1.05098e-08
1.0861e-12
0.00343689
1.15931e-08
1.05227e-12
0.00343688
1.22099e-08
1.01529e-12
0.00343686
1.2436e-08
9.76631e-13
0.00343685
1.2341e-08
9.36908e-13
0.00343684
1.19882e-08
8.97044e-13
0.00343683
1.14345e-08
8.57968e-13
0.00343682
1.07305e-08
8.19949e-13
0.00343681
9.92059e-09
7.82761e-13
0.0034368
9.04293e-09
7.46147e-13
0.00343679
8.13006e-09
7.09788e-13
0.00343678
7.2091e-09
6.72964e-13
0.00343678
6.30215e-09
6.35106e-13
0.00343677
5.42678e-09
5.9667e-13
0.00343677
4.59644e-09
5.58506e-13
0.00343676
3.82094e-09
5.20621e-13
0.00343676
3.10692e-09
4.82575e-13
0.00343676
2.4583e-09
4.44795e-13
0.00343676
1.87673e-09
4.08329e-13
0.00343675
1.36194e-09
3.73876e-13
0.00343675
9.12184e-10
3.41968e-13
0.00343675
5.2451e-10
3.13678e-13
0.00343675
1.95132e-10
2.88446e-13
0.00343675
-8.03977e-11
2.66375e-13
0.00343675
-3.06821e-10
2.46104e-13
0.00343675
-4.8912e-10
2.27053e-13
0.00343675
-6.32283e-10
2.0755e-13
0.00343675
-7.41192e-10
1.85811e-13
0.00343676
-8.20522e-10
1.61753e-13
0.00343676
-8.74665e-10
1.36899e-13
0.00343676
-9.07682e-10
1.11929e-13
0.00343676
-9.23276e-10
8.64805e-14
0.00343676
-9.24767e-10
6.14252e-14
0.00343676
-9.15094e-10
3.99388e-14
0.00343676
-8.96822e-10
2.40682e-14
0.00343676
-8.72161e-10
1.40073e-14
0.00343676
-8.42986e-10
3.20765e-15
0.00343676
-8.10868e-10
-4.14407e-15
0.00343676
-7.7709e-10
-7.67184e-15
0.00343677
-7.42689e-10
-8.3717e-15
0.00343677
-7.08481e-10
-8.585e-15
0.00343677
-6.75093e-10
-4.12552e-15
0.00343677
-6.42988e-10
-1.43429e-15
0.00343677
-6.12488e-10
7.58595e-16
0.00343677
-5.83802e-10
-1.1838e-15
0.00343677
-5.57046e-10
-7.4011e-15
0.00343677
-5.32262e-10
-1.81902e-14
0.00343677
-5.09433e-10
-3.01998e-14
0.00343677
-4.88497e-10
-5.04163e-14
0.00343677
-4.6936e-10
-7.68771e-14
0.00343677
-4.51907e-10
-1.00755e-13
0.00343677
-4.36005e-10
-1.20969e-13
0.00343677
-4.21518e-10
-1.39044e-13
0.00343677
-4.08313e-10
-1.54083e-13
0.00343677
-3.96255e-10
-1.63839e-13
0.00343677
-3.85215e-10
-1.6914e-13
0.00343677
-3.75073e-10
-1.7248e-13
0.00343677
-3.65724e-10
-1.74931e-13
0.00343677
-3.57068e-10
-1.74538e-13
0.00343677
-3.49008e-10
-1.69761e-13
0.00343678
-3.41462e-10
-1.62544e-13
0.00343678
-3.34361e-10
-1.55799e-13
0.00343678
-3.27643e-10
-1.49934e-13
0.00343678
-3.21249e-10
-1.4495e-13
0.00343678
-3.1513e-10
-1.42094e-13
0.00343678
-3.09251e-10
-1.44754e-13
0.00343678
-3.0358e-10
-1.53019e-13
0.00343678
-2.9808e-10
-1.61949e-13
0.00343678
-2.9272e-10
-1.68279e-13
0.00343678
-2.87483e-10
-1.75426e-13
0.00343678
-2.82358e-10
-1.86557e-13
0.00343678
-2.77331e-10
-2.00215e-13
0.00343678
-2.72387e-10
-2.15079e-13
0.00343678
-2.67516e-10
-2.30334e-13
0.00343678
-2.62714e-10
-2.42243e-13
0.00343678
-2.57976e-10
-2.45428e-13
0.00343678
-2.53294e-10
-2.40496e-13
0.00343678
-2.48663e-10
-2.34713e-13
0.00343678
-2.44091e-10
-2.31533e-13
0.00343678
-2.3959e-10
-2.30886e-13
0.00343678
-2.35155e-10
-2.30716e-13
0.00343678
-2.30773e-10
-2.27084e-13
0.00343678
-2.26447e-10
-2.18528e-13
0.00343678
-2.22185e-10
-2.07945e-13
0.00343678
-2.17988e-10
-1.97171e-13
0.00343678
-2.13858e-10
-1.87786e-13
0.00343678
-2.09794e-10
-1.81268e-13
0.00343678
-2.05793e-10
-1.7697e-13
0.00343678
-2.01855e-10
-1.71853e-13
0.00343678
-1.9798e-10
-1.62089e-13
0.00343678
-1.94171e-10
-1.49533e-13
0.00343678
-1.90425e-10
-1.38813e-13
0.00343678
-1.86736e-10
-1.32875e-13
0.00343678
-1.83113e-10
-1.26729e-13
0.00343678
-1.7956e-10
-1.19133e-13
0.00343678
-1.76066e-10
-1.11168e-13
0.00343678
-1.72624e-10
-1.06032e-13
0.00343678
-1.69247e-10
-9.9711e-14
0.00343678
-1.65942e-10
-9.05166e-14
0.00343678
-1.62686e-10
-7.8916e-14
0.00343678
-1.5947e-10
-6.23501e-14
0.00343678
-1.56322e-10
-4.66177e-14
0.00343679
-1.53237e-10
-5.21313e-14
0.00343679
-1.50199e-10
-6.05268e-14
0.00343679
-1.47208e-10
-4.72101e-14
0.00343679
-1.44264e-10
-2.40543e-14
0.00343679
-1.41373e-10
-9.70005e-15
0.00343679
-1.38525e-10
-1.15541e-14
0.00343679
-1.35729e-10
-8.87517e-15
0.00343679
-1.33001e-10
-5.18955e-15
0.00343679
-1.3033e-10
-1.38604e-14
0.00343679
-1.27698e-10
-2.00947e-14
0.00343679
-1.25103e-10
-8.84797e-15
0.00343679
-1.22556e-10
8.24982e-15
0.00343679
-1.20067e-10
9.2166e-15
0.00343679
-1.17626e-10
-7.93015e-15
0.00343679
-1.15228e-10
-4.82885e-15
0.00343679
-1.12879e-10
1.9777e-14
0.00343679
-1.10572e-10
2.34005e-14
0.00343679
-1.08301e-10
5.8514e-15
0.00343679
-1.06065e-10
4.63811e-15
0.00343679
-1.0388e-10
2.5174e-14
0.00343679
-1.01758e-10
2.29378e-14
0.00343679
-9.96729e-11
-1.44609e-14
0.00343679
-9.76e-11
-2.82157e-14
0.00343679
-9.55551e-11
-2.4176e-16
0.00343679
-9.35688e-11
1.93675e-14
0.00343679
-9.16258e-11
-5.24407e-16
0.00343679
-8.97057e-11
-2.71667e-14
0.00343679
-8.78298e-11
-2.47773e-14
0.00343679
-8.60098e-11
-8.86742e-15
0.00343679
-8.42103e-11
-1.85237e-14
0.00343679
-8.24206e-11
-2.94124e-14
0.00343679
-8.06851e-11
-1.14616e-14
0.00343679
-7.90181e-11
4.52356e-15
0.00343679
-7.73688e-11
-1.33705e-14
0.00343679
-7.57217e-11
-2.38182e-14
0.00343679
-7.41216e-11
-1.09864e-15
0.00343679
-7.25826e-11
1.72762e-14
0.00343679
-7.107e-11
9.09168e-15
0.00343679
-6.95786e-11
7.10045e-15
0.00343679
-6.81307e-11
1.19452e-14
0.00343679
-6.67411e-11
8.22386e-15
0.00343679
-6.53772e-11
-9.55598e-16
0.00343679
-6.40021e-11
1.59972e-14
0.00343679
-6.26527e-11
5.45266e-14
0.00343679
-6.13707e-11
5.51485e-14
0.00343679
-6.01326e-11
1.88616e-14
0.00343679
-5.88953e-11
4.99224e-15
0.00343679
-5.76678e-11
3.39986e-14
0.00343679
-5.64814e-11
6.17858e-14
0.00343679
-5.53147e-11
3.74624e-14
0.00343679
-5.41608e-11
4.5545e-15
0.00343679
-5.30508e-11
2.11139e-14
0.00343679
-5.1971e-11
5.01465e-14
0.00343679
-5.08883e-11
3.57629e-14
0.00343679
-4.98205e-11
1.77995e-14
0.00343679
-4.87913e-11
3.52893e-14
0.00343679
-4.77935e-11
4.61684e-14
0.00343679
-4.68272e-11
3.01712e-14
0.00343679
-4.58796e-11
4.14657e-15
0.00343679
-4.49459e-11
4.32139e-15
0.00343679
-4.40322e-11
3.60872e-14
0.00343679
-4.31055e-11
4.99245e-14
0.00343679
-4.21954e-11
2.58904e-14
0.00343679
-4.13884e-11
9.94033e-15
0.00343679
-4.06073e-11
3.32455e-15
0.00343679
-3.97472e-11
-4.25996e-15
0.00343679
-3.8898e-11
7.33205e-15
0.00343679
-3.81417e-11
1.55261e-14
0.00343679
-3.74031e-11
-3.01406e-15
0.00343679
-3.6613e-11
-3.90524e-14
0.00343679
-3.58488e-11
-3.79248e-14
0.00343679
-3.51559e-11
2.52959e-14
0.00343679
-3.44052e-11
2.66701e-14
0.00343679
-3.36258e-11
-4.5361e-14
0.00343679
-3.2981e-11
-4.60298e-14
0.00343679
-3.23715e-11
6.30174e-15
0.00343679
-3.16362e-11
-1.74502e-14
0.00343679
-3.09139e-11
-5.38597e-14
0.00343679
-3.03238e-11
5.65998e-15
0.00343679
-2.97049e-11
1.42964e-14
0.00343679
-2.90126e-11
-6.13319e-14
0.00343679
-2.83756e-11
-5.42702e-14
0.00343679
-2.77836e-11
1.64733e-14
0.00343679
-2.7172e-11
1.69068e-14
0.00343679
-2.65687e-11
-2.89358e-14
0.00343679
-2.59987e-11
-4.3245e-14
0.00343679
-2.54517e-11
-2.89598e-14
0.00343679
-2.49273e-11
-5.12108e-15
0.00343679
-2.43823e-11
3.55967e-15
0.00343679
-2.37977e-11
-4.61022e-14
0.00343679
-2.3348e-11
-4.37301e-14
0.00343679
-2.2997e-11
3.43678e-14
0.00343679
-2.24205e-11
6.97475e-15
0.00343679
-2.18076e-11
-6.87509e-14
0.00343679
-2.15423e-11
1.67818e-14
0.00343679
-2.12578e-11
7.22484e-14
0.00343679
-2.06375e-11
-6.83167e-14
0.00343679
-2.01932e-11
-7.21204e-14
0.00343679
-2.00673e-11
9.08096e-14
0.00343679
-1.96712e-11
2.09697e-14
0.00343679
-1.91064e-11
-1.18078e-13
0.00343679
-1.88944e-11
7.69677e-15
0.00343679
-1.87004e-11
1.08043e-13
0.00343679
-1.82381e-11
4.19287e-15
0.00343679
-1.79006e-11
-5.34684e-14
0.00343679
-1.77368e-11
4.08226e-14
0.00343679
-1.73877e-11
7.59334e-14
0.00343679
-1.70024e-11
1.753e-14
0.00343679
-1.68441e-11
5.78223e-15
0.00343679
-1.65763e-11
2.13807e-14
0.00343679
-1.61359e-11
-6.84564e-15
0.00343679
-1.5901e-11
-8.65781e-15
0.00343679
-1.57227e-11
6.99158e-14
0.00343679
-1.53261e-11
4.38582e-15
0.00343679
-1.49564e-11
-1.14901e-13
0.00343679
-1.4782e-11
4.64952e-15
0.00343679
-1.45438e-11
8.11084e-14
0.00343679
-1.41818e-11
-7.86414e-14
0.00343679
-1.39117e-11
-9.56585e-14
0.00343679
-1.36204e-11
-2.61103e-14
0.00343679
-1.34281e-11
-7.69329e-15
0.00343679
-1.31937e-11
1.69277e-14
0.00343679
-1.28497e-11
-3.43354e-14
0.00343679
-1.26124e-11
-9.62287e-14
0.00343679
-1.23722e-11
1.65049e-14
0.00343679
-1.21694e-11
7.54514e-14
0.00343679
-1.20061e-11
-3.60462e-14
0.00343679
-1.16991e-11
-6.85834e-14
0.00343679
-1.13601e-11
1.88799e-15
0.00343679
-1.12863e-11
6.95898e-14
0.00343679
-1.12183e-11
2.11651e-14
0.00343679
-1.08365e-11
-9.84421e-14
0.00343679
-1.05314e-11
6.13059e-15
0.00343679
-1.05269e-11
6.70198e-14
0.00343679
-1.04518e-11
-7.19462e-15
0.00343679
-1.00346e-11
-2.27841e-14
0.00343679
-9.88076e-12
-6.66383e-14
0.00343679
-9.93142e-12
2.52368e-14
0.00343679
-9.68529e-12
9.07698e-14
0.00343679
-9.44493e-12
-9.52323e-14
0.00343679
-9.46739e-12
1.49398e-14
0.00343679
-9.38268e-12
1.43864e-13
0.00343679
-9.10454e-12
-3.18179e-14
0.00343679
-8.98136e-12
-5.23822e-14
0.00343679
-8.94429e-12
7.26384e-14
0.00343679
-8.9083e-12
1.84009e-13
0.00343679
-8.62652e-12
-1.26916e-13
0.00343679
-8.42735e-12
-1.62065e-13
0.00343679
-8.47305e-12
1.90889e-13
0.00343679
-8.40025e-12
2.60282e-15
0.00343679
-8.19334e-12
-3.339e-14
0.00343679
-8.03074e-12
7.2746e-15
0.00343679
-7.90165e-12
-1.39436e-13
0.00343679
-8.0115e-12
2.35437e-13
0.00343679
-7.94143e-12
1.0648e-13
0.00343679
-7.53803e-12
-1.76772e-13
0.00343679
-7.66187e-12
1.06389e-13
0.00343679
-7.64532e-12
2.26389e-14
0.00343679
-7.39854e-12
1.32881e-14
0.00343679
-7.3075e-12
8.95807e-14
0.00343679
-7.34511e-12
1.83354e-14
0.00343679
-7.13678e-12
-5.6467e-14
0.00343679
-6.85367e-12
-5.65188e-14
0.00343679
-6.96914e-12
1.27363e-13
0.00343679
-6.74463e-12
-3.87161e-14
0.00343679
-6.60085e-12
-8.81894e-14
0.00343679
-6.65335e-12
3.89174e-14
0.00343679
-6.2077e-12
-1.07018e-13
0.00343679
-6.3751e-12
7.74093e-14
0.00343679
-6.23526e-12
-2.56377e-14
0.00343679
-6.10603e-12
-1.21109e-13
0.00343679
-6.22435e-12
1.90312e-13
0.00343679
-5.65176e-12
-1.76564e-13
0.00343679
-6.24266e-12
1.19583e-13
0.00343679
-5.62953e-12
-8.75586e-14
0.00343679
-5.62894e-12
-1.04538e-13
0.00343679
-6.04853e-12
2.52111e-13
0.00343679
-5.06975e-12
-3.16499e-13
0.00343679
-5.68296e-12
1.38226e-13
0.00343679
-5.38944e-12
-1.25924e-13
0.00343679
-5.26016e-12
5.16854e-14
0.00343679
-5.37667e-12
4.39395e-14
0.00343679
-5.04975e-12
-1.98029e-13
0.00343679
-5.36628e-12
2.36675e-13
0.00343679
-5.16161e-12
-8.24726e-14
0.00343679
-5.15745e-12
1.53869e-14
0.00343679
-4.92449e-12
-8.94538e-14
0.00343679
-5.27911e-12
1.97863e-13
0.00343679
-4.9399e-12
-9.51324e-14
0.00343679
-5.08911e-12
3.44981e-14
0.00343679
-4.86383e-12
-1.52801e-13
0.00343679
-4.91005e-12
-6.39312e-14
0.00343679
-4.8927e-12
1.26639e-13
0.00343679
-5.00929e-12
9.82243e-14
0.00343679
-4.79617e-12
-9.29292e-14
0.00343679
-4.60135e-12
-1.58552e-13
0.00343679
-4.95526e-12
2.9595e-13
0.00343679
-4.60303e-12
-1.54994e-13
0.00343679
-4.53136e-12
-6.20532e-14
0.00343679
-4.84211e-12
2.13301e-13
0.00343679
-4.26438e-12
-2.90016e-13
0.00343679
-4.36518e-12
-2.87315e-14
0.00343679
-4.582e-12
9.42548e-14
0.00343679
-4.03896e-12
-1.82048e-13
0.00343679
-4.38091e-12
8.83955e-14
0.00343679
-4.03614e-12
-1.60812e-13
0.00343679
-4.43124e-12
3.16431e-13
0.00343679
-3.87318e-12
-2.82946e-13
0.00343679
-4.31656e-12
2.82816e-13
0.00343679
-3.96509e-12
-1.36336e-13
0.00343679
-4.09859e-12
1.1102e-13
0.00343679
-4.00998e-12
-7.17859e-15
0.00343679
-3.90739e-12
-2.64555e-14
0.00343679
-3.96609e-12
1.51e-14
0.00343679
-3.99937e-12
1.11291e-13
0.00343679
-3.81065e-12
-8.12812e-14
0.00343679
-3.90535e-12
7.89453e-14
0.00343679
-3.70887e-12
-1.50038e-13
0.00343679
-3.68745e-12
1.01757e-13
0.00343679
-3.87312e-12
-2.18598e-13
0.00343679
-3.5282e-12
6.6907e-14
0.00343679
-4.29092e-12
-1.44568e-13
0.00343679
-3.62809e-12
1.35129e-13
0.00343679
-5.53727e-12
9.97612e-14
0.00343679
-3.65508e-12
-2.07456e-13
0.00343679
-7.72989e-12
1.98977e-13
0.00343679
-4.41858e-12
4.08237e-14
0.00343679
-1.04562e-11
-9.53962e-14
0.00343679
-4.70982e-12
1.6899e-13
0.00343679
-9.40045e-12
-1.39616e-13
0.00343679
2.03452e-12
-4.68138e-13
2.70637e-11
1.92125e-13
0.00240039
-1.40663e-07
0.0024006
-4.25021e-07
0.00240096
-7.12882e-07
0.00240145
-1.00367e-06
0.0024021
-1.29696e-06
0.00240288
-1.59235e-06
0.00240382
-1.88941e-06
0.0024049
-2.18769e-06
0.00240613
-2.48674e-06
0.00240751
-2.78613e-06
0.00240904
-3.08539e-06
0.00241071
-3.38407e-06
0.00241254
-3.68171e-06
0.0024145
-3.97787e-06
0.00241662
-4.2721e-06
0.00241888
-4.56396e-06
0.00242128
-4.85304e-06
0.00242382
-5.13891e-06
0.0024265
-5.42117e-06
0.00242932
-5.69943e-06
0.00243227
-5.97333e-06
0.00243536
-6.24251e-06
0.00243857
-6.50664e-06
0.00244192
-6.76541e-06
0.00244538
-7.01852e-06
0.00244897
-7.2657e-06
0.00245268
-7.5067e-06
0.0024565
-7.7413e-06
0.00246044
-7.96931e-06
0.00246448
-8.19053e-06
0.00246863
-8.40481e-06
0.00247288
-8.61203e-06
0.00247723
-8.81207e-06
0.00248167
-9.00484e-06
0.0024862
-9.19029e-06
0.00249082
-9.36836e-06
0.00249552
-9.53904e-06
0.0025003
-9.70231e-06
0.00250516
-9.8582e-06
0.00251009
-1.00067e-05
0.00251509
-1.0148e-05
0.00252016
-1.0282e-05
0.00252528
-1.04088e-05
0.00253047
-1.05286e-05
0.00253571
-1.06414e-05
0.002541
-1.07474e-05
0.00254633
-1.08466e-05
0.00255172
-1.09393e-05
0.00255714
-1.10256e-05
0.00256261
-1.11056e-05
0.0025681
-1.11795e-05
0.00257364
-1.12474e-05
0.0025792
-1.13096e-05
0.00258479
-1.13662e-05
0.0025904
-1.14174e-05
0.00259603
-1.14633e-05
0.00260169
-1.15041e-05
0.00260736
-1.15401e-05
0.00261305
-1.15714e-05
0.00261875
-1.15982e-05
0.00262446
-1.16206e-05
0.00263017
-1.16389e-05
0.0026359
-1.16532e-05
0.00264163
-1.16638e-05
0.00264736
-1.16706e-05
0.00265309
-1.16741e-05
0.00265883
-1.16742e-05
0.00266456
-1.16712e-05
0.00267029
-1.16652e-05
0.00267601
-1.16565e-05
0.00268173
-1.1645e-05
0.00268744
-1.1631e-05
0.00269314
-1.16147e-05
0.00269883
-1.15961e-05
0.00270451
-1.15753e-05
0.00271018
-1.15526e-05
0.00271584
-1.15281e-05
0.00272148
-1.15017e-05
0.00272712
-1.14738e-05
0.00273273
-1.14443e-05
0.00273833
-1.14134e-05
0.00274392
-1.13812e-05
0.00274948
-1.13477e-05
0.00275503
-1.13131e-05
0.00276057
-1.12775e-05
0.00276608
-1.12409e-05
0.00277157
-1.12034e-05
0.00277705
-1.11651e-05
0.00278251
-1.1126e-05
0.00278794
-1.10863e-05
0.00279336
-1.10459e-05
0.00279876
-1.1005e-05
0.00280413
-1.09636e-05
0.00280949
-1.09217e-05
0.00281482
-1.08794e-05
0.00282013
-1.08367e-05
0.00282542
-1.07938e-05
0.00283069
-1.07505e-05
0.00283593
-1.0707e-05
0.00284116
-1.06633e-05
0.00284636
-1.06194e-05
0.00285154
-1.05753e-05
0.0028567
-1.05311e-05
0.00286183
-1.04868e-05
0.00286695
-1.04424e-05
0.00287204
-1.0398e-05
0.00287711
-1.03534e-05
0.00288215
-1.03089e-05
0.00288718
-1.02643e-05
0.00289218
-1.02197e-05
0.00289715
-1.01751e-05
0.00290211
-1.01305e-05
0.00290704
-1.0086e-05
0.00291195
-1.00414e-05
0.00291684
-9.99681e-06
0.0029217
-9.95226e-06
0.00292655
-9.90772e-06
0.00293137
-9.8632e-06
0.00293616
-9.81868e-06
0.00294094
-9.77417e-06
0.00294569
-9.72966e-06
0.00295042
-9.68515e-06
0.00295512
-9.64063e-06
0.00295981
-9.59608e-06
0.00296447
-9.55151e-06
0.0029691
-9.50689e-06
0.00297372
-9.46223e-06
0.00297831
-9.41751e-06
0.00298288
-9.37271e-06
0.00298743
-9.32782e-06
0.00299195
-9.28283e-06
0.00299645
-9.23773e-06
0.00300093
-9.19249e-06
0.00300539
-9.14711e-06
0.00300982
-9.10156e-06
0.00301422
-9.05583e-06
0.00301861
-9.0099e-06
0.00302297
-8.96375e-06
0.00302731
-8.91735e-06
0.00303162
-8.8707e-06
0.00303591
-8.82377e-06
0.00304018
-8.77654e-06
0.00304442
-8.72899e-06
0.00304864
-8.68109e-06
0.00305283
-8.63282e-06
0.003057
-8.58415e-06
0.00306114
-8.53507e-06
0.00306526
-8.48555e-06
0.00306935
-8.43556e-06
0.00307342
-8.38508e-06
0.00307746
-8.33408e-06
0.00308148
-8.28253e-06
0.00308547
-8.23041e-06
0.00308943
-8.17769e-06
0.00309337
-8.12435e-06
0.00309728
-8.07035e-06
0.00310116
-8.01566e-06
0.00310501
-7.96027e-06
0.00310884
-7.90414e-06
0.00311264
-7.84723e-06
0.00311641
-7.78954e-06
0.00312015
-7.73101e-06
0.00312386
-7.67164e-06
0.00312754
-7.61139e-06
0.00313119
-7.55023e-06
0.0031348
-7.48814e-06
0.00313839
-7.4251e-06
0.00314195
-7.36107e-06
0.00314547
-7.29604e-06
0.00314896
-7.22999e-06
0.00315242
-7.16288e-06
0.00315584
-7.09472e-06
0.00315923
-7.02547e-06
0.00316258
-6.95512e-06
0.0031659
-6.88366e-06
0.00316919
-6.81108e-06
0.00317243
-6.73737e-06
0.00317564
-6.66253e-06
0.00317881
-6.58655e-06
0.00318195
-6.50943e-06
0.00318504
-6.43118e-06
0.0031881
-6.35181e-06
0.00319112
-6.27131e-06
0.0031941
-6.18972e-06
0.00319703
-6.10704e-06
0.00319993
-6.02329e-06
0.00320278
-5.93851e-06
0.0032056
-5.85271e-06
0.00320837
-5.76593e-06
0.00321109
-5.6782e-06
0.00321378
-5.58955e-06
0.00321642
-5.50004e-06
0.00321901
-5.40969e-06
0.00322156
-5.31855e-06
0.00322407
-5.22666e-06
0.00322653
-5.13408e-06
0.00322894
-5.04085e-06
0.00323131
-4.94701e-06
0.00323364
-4.85261e-06
0.00323592
-4.7577e-06
0.00323815
-4.66232e-06
0.00324033
-4.56651e-06
0.00324247
-4.47032e-06
0.00324456
-4.37377e-06
0.0032466
-4.27691e-06
0.0032486
-4.17976e-06
0.00325055
-4.08235e-06
0.00325245
-3.98471e-06
0.00325431
-3.88685e-06
0.00325611
-3.7888e-06
0.00325787
-3.69056e-06
0.00325959
-3.59215e-06
0.00326125
-3.49358e-06
0.00326287
-3.39485e-06
0.00326443
-3.29598e-06
0.00326595
-3.19697e-06
0.00326743
-3.09784e-06
0.00326885
-2.99859e-06
0.00327023
-2.89925e-06
0.00327156
-2.79985e-06
0.00327284
-2.70041e-06
0.00327407
-2.60098e-06
0.00327526
-2.5016e-06
0.0032764
-2.40234e-06
0.00327749
-2.30327e-06
0.00327853
-2.20448e-06
0.00327952
-2.10607e-06
0.00328047
-2.00815e-06
0.00328137
-1.91084e-06
0.00328223
-1.81429e-06
0.00328304
-1.71865e-06
0.00328381
-1.62408e-06
0.00328453
-1.53075e-06
0.0032852
-1.43886e-06
0.00328584
-1.34858e-06
0.00328643
-1.26012e-06
0.00328698
-1.17367e-06
0.00328749
-1.08942e-06
0.00328796
-1.00758e-06
0.0032884
-9.28323e-07
0.00328879
-8.51833e-07
0.00328916
-7.78277e-07
0.00328949
-7.07807e-07
0.00328978
-6.40562e-07
0.00329005
-5.76659e-07
0.00329029
-5.16195e-07
0.00329051
-4.59246e-07
0.00329069
-4.05863e-07
0.00329086
-3.56073e-07
0.003291
-3.09879e-07
0.00329112
-2.6726e-07
0.00329123
-2.2817e-07
0.00329132
-1.92539e-07
0.00329139
-1.60277e-07
0.00329145
-1.31273e-07
0.0032915
-1.05396e-07
0.00329153
-8.25007e-08
0.00329156
-6.24279e-08
0.00329158
-4.50065e-08
0.00329159
-3.00566e-08
0.0032916
-1.73927e-08
0.0032916
-6.82619e-09
0.0032916
1.83497e-09
0.00329159
8.77757e-09
0.00329159
1.41876e-08
0.00329158
1.82445e-08
0.00329157
2.11207e-08
0.00329155
2.29796e-08
0.00329154
2.39748e-08
0.00329153
2.42489e-08
0.00329152
2.39328e-08
0.00329151
2.31453e-08
0.0032915
2.19933e-08
0.00329149
2.05714e-08
0.00329148
1.89621e-08
0.00329147
1.72368e-08
0.00329146
1.54558e-08
0.00329146
1.36693e-08
0.00329145
1.19178e-08
0.00329145
1.02337e-08
0.00329144
8.64135e-09
0.00329144
7.15835e-09
0.00329144
5.79642e-09
0.00329143
4.56221e-09
0.00329143
3.45808e-09
0.00329143
2.48293e-09
0.00329143
1.63287e-09
0.00329143
9.01861e-10
0.00329143
2.82293e-10
0.00329143
-2.34525e-10
0.00329143
-6.57906e-10
0.00329143
-9.97489e-10
0.00329143
-1.26289e-09
0.00329143
-1.4635e-09
0.00329143
-1.60827e-09
0.00329143
-1.7056e-09
0.00329143
-1.76325e-09
0.00329144
-1.78824e-09
0.00329144
-1.78691e-09
0.00329144
-1.76482e-09
0.00329144
-1.72683e-09
0.00329144
-1.6771e-09
0.00329144
-1.61919e-09
0.00329144
-1.55602e-09
0.00329144
-1.49001e-09
0.00329144
-1.42309e-09
0.00329144
-1.35678e-09
0.00329144
-1.29223e-09
0.00329144
-1.23029e-09
0.00329144
-1.17155e-09
0.00329144
-1.11637e-09
0.00329144
-1.06496e-09
0.00329145
-1.01738e-09
0.00329145
-9.73583e-10
0.00329145
-9.33446e-10
0.00329145
-8.96785e-10
0.00329145
-8.63377e-10
0.00329145
-8.3297e-10
0.00329145
-8.05301e-10
0.00329145
-7.80106e-10