/*--------------------------------*- C++ -*----------------------------------*\
  =========                 |
  \\      /  F ield         | OpenFOAM: The Open Source CFD Toolbox
   \\    /   O peration     | Website:  https://openfoam.org
    \\  /    A nd           | Version:  7
     \\/     M anipulation  |
\*---------------------------------------------------------------------------*/
FoamFile
{
    version     2.0;
    format      ascii;
    class       volVectorField;
    location    "2";
    object      U;
}
// * * * * * * * * * * * * * * * * * * * * * * * * * * * * * * * * * * * * * //

dimensions      [0 1 -1 0 0 0 0];

internalField   nonuniform List<vector> 
48000
(
(1.00001 -5.53405e-05 0)
(1.00006 -0.000166421 0)
(1.00017 -0.000277956 0)
(1.00034 -0.000389772 0)
(1.00058 -0.000501704 0)
(1.00087 -0.000613593 0)
(1.00122 -0.000725272 0)
(1.00163 -0.000836578 0)
(1.0021 -0.000947343 0)
(1.00264 -0.0010574 0)
(1.00323 -0.00116659 0)
(1.00388 -0.00127475 0)
(1.00459 -0.00138172 0)
(1.00537 -0.00148734 0)
(1.0062 -0.00159147 0)
(1.00709 -0.00169395 0)
(1.00805 -0.00179465 0)
(1.00905 -0.00189343 0)
(1.01012 -0.00199016 0)
(1.01125 -0.00208472 0)
(1.01243 -0.002177 0)
(1.01366 -0.00226689 0)
(1.01495 -0.00235429 0)
(1.01629 -0.00243912 0)
(1.01769 -0.00252129 0)
(1.01913 -0.00260073 0)
(1.02063 -0.00267739 0)
(1.02217 -0.00275119 0)
(1.02376 -0.00282211 0)
(1.02539 -0.0028901 0)
(1.02707 -0.00295514 0)
(1.0288 -0.00301721 0)
(1.03056 -0.00307629 0)
(1.03237 -0.00313239 0)
(1.03421 -0.0031855 0)
(1.03609 -0.00323565 0)
(1.03801 -0.00328284 0)
(1.03996 -0.00332712 0)
(1.04194 -0.0033685 0)
(1.04396 -0.00340702 0)
(1.046 -0.00344274 0)
(1.04807 -0.0034757 0)
(1.05017 -0.00350595 0)
(1.0523 -0.00353355 0)
(1.05445 -0.00355856 0)
(1.05662 -0.00358105 0)
(1.05881 -0.00360108 0)
(1.06102 -0.00361873 0)
(1.06325 -0.00363406 0)
(1.0655 -0.00364715 0)
(1.06776 -0.00365807 0)
(1.07004 -0.0036669 0)
(1.07233 -0.00367373 0)
(1.07464 -0.00367861 0)
(1.07695 -0.00368164 0)
(1.07928 -0.0036829 0)
(1.08161 -0.00368245 0)
(1.08395 -0.00368037 0)
(1.0863 -0.00367675 0)
(1.08866 -0.00367165 0)
(1.09102 -0.00366515 0)
(1.09339 -0.00365732 0)
(1.09575 -0.00364824 0)
(1.09813 -0.00363797 0)
(1.1005 -0.00362658 0)
(1.10287 -0.00361413 0)
(1.10525 -0.0036007 0)
(1.10762 -0.00358633 0)
(1.11 -0.00357111 0)
(1.11237 -0.00355507 0)
(1.11474 -0.00353828 0)
(1.11711 -0.00352079 0)
(1.11948 -0.00350266 0)
(1.12184 -0.00348393 0)
(1.1242 -0.00346466 0)
(1.12655 -0.00344488 0)
(1.1289 -0.00342465 0)
(1.13124 -0.003404 0)
(1.13358 -0.00338297 0)
(1.13592 -0.00336161 0)
(1.13824 -0.00333995 0)
(1.14056 -0.00331802 0)
(1.14288 -0.00329585 0)
(1.14518 -0.00327349 0)
(1.14749 -0.00325094 0)
(1.14978 -0.00322826 0)
(1.15206 -0.00320544 0)
(1.15434 -0.00318254 0)
(1.15661 -0.00315955 0)
(1.15888 -0.00313652 0)
(1.16113 -0.00311344 0)
(1.16338 -0.00309036 0)
(1.16561 -0.00306727 0)
(1.16784 -0.0030442 0)
(1.17007 -0.00302116 0)
(1.17228 -0.00299817 0)
(1.17448 -0.00297523 0)
(1.17668 -0.00295236 0)
(1.17887 -0.00292957 0)
(1.18105 -0.00290686 0)
(1.18322 -0.00288425 0)
(1.18538 -0.00286174 0)
(1.18753 -0.00283934 0)
(1.18967 -0.00281706 0)
(1.19181 -0.00279489 0)
(1.19393 -0.00277285 0)
(1.19605 -0.00275094 0)
(1.19816 -0.00272915 0)
(1.20026 -0.0027075 0)
(1.20235 -0.00268598 0)
(1.20443 -0.0026646 0)
(1.20651 -0.00264336 0)
(1.20857 -0.00262225 0)
(1.21063 -0.00260128 0)
(1.21267 -0.00258044 0)
(1.21471 -0.00255974 0)
(1.21674 -0.00253917 0)
(1.21876 -0.00251873 0)
(1.22077 -0.00249843 0)
(1.22278 -0.00247825 0)
(1.22477 -0.00245819 0)
(1.22676 -0.00243826 0)
(1.22873 -0.00241845 0)
(1.2307 -0.00239875 0)
(1.23266 -0.00237917 0)
(1.23461 -0.0023597 0)
(1.23655 -0.00234033 0)
(1.23849 -0.00232106 0)
(1.24041 -0.00230189 0)
(1.24233 -0.00228281 0)
(1.24423 -0.00226382 0)
(1.24613 -0.00224492 0)
(1.24802 -0.00222609 0)
(1.2499 -0.00220734 0)
(1.25177 -0.00218866 0)
(1.25364 -0.00217004 0)
(1.25549 -0.00215149 0)
(1.25733 -0.00213299 0)
(1.25917 -0.00211454 0)
(1.261 -0.00209613 0)
(1.26281 -0.00207776 0)
(1.26462 -0.00205943 0)
(1.26642 -0.00204113 0)
(1.26821 -0.00202286 0)
(1.26999 -0.0020046 0)
(1.27176 -0.00198635 0)
(1.27352 -0.00196811 0)
(1.27527 -0.00194988 0)
(1.27701 -0.00193164 0)
(1.27874 -0.00191339 0)
(1.28046 -0.00189513 0)
(1.28217 -0.00187685 0)
(1.28387 -0.00185855 0)
(1.28556 -0.00184021 0)
(1.28724 -0.00182184 0)
(1.28891 -0.00180343 0)
(1.29057 -0.00178497 0)
(1.29222 -0.00176646 0)
(1.29385 -0.00174789 0)
(1.29548 -0.00172927 0)
(1.29709 -0.00171057 0)
(1.29869 -0.00169181 0)
(1.30028 -0.00167297 0)
(1.30186 -0.00165405 0)
(1.30343 -0.00163504 0)
(1.30498 -0.00161595 0)
(1.30652 -0.00159676 0)
(1.30805 -0.00157748 0)
(1.30956 -0.0015581 0)
(1.31106 -0.00153861 0)
(1.31255 -0.00151903 0)
(1.31403 -0.00149934 0)
(1.31549 -0.00147954 0)
(1.31693 -0.00145963 0)
(1.31837 -0.00143961 0)
(1.31978 -0.00141948 0)
(1.32119 -0.00139924 0)
(1.32257 -0.00137889 0)
(1.32395 -0.00135844 0)
(1.3253 -0.00133788 0)
(1.32665 -0.00131721 0)
(1.32797 -0.00129645 0)
(1.32928 -0.00127559 0)
(1.33057 -0.00125465 0)
(1.33185 -0.00123361 0)
(1.33311 -0.0012125 0)
(1.33435 -0.00119132 0)
(1.33557 -0.00117007 0)
(1.33678 -0.00114876 0)
(1.33797 -0.0011274 0)
(1.33914 -0.001106 0)
(1.34029 -0.00108456 0)
(1.34143 -0.0010631 0)
(1.34254 -0.00104163 0)
(1.34364 -0.00102016 0)
(1.34472 -0.000998685 0)
(1.34578 -0.000977229 0)
(1.34682 -0.000955797 0)
(1.34784 -0.000934399 0)
(1.34884 -0.000913043 0)
(1.34982 -0.000891739 0)
(1.35078 -0.000870494 0)
(1.35172 -0.000849316 0)
(1.35265 -0.000828212 0)
(1.35355 -0.000807187 0)
(1.35443 -0.000786248 0)
(1.35529 -0.000765398 0)
(1.35614 -0.000744642 0)
(1.35696 -0.000723983 0)
(1.35776 -0.000703424 0)
(1.35854 -0.000682965 0)
(1.35931 -0.000662609 0)
(1.36005 -0.000642357 0)
(1.36077 -0.000622208 0)
(1.36147 -0.000602165 0)
(1.36215 -0.000582226 0)
(1.36281 -0.000562395 0)
(1.36345 -0.000542671 0)
(1.36407 -0.000523057 0)
(1.36467 -0.000503558 0)
(1.36524 -0.000484177 0)
(1.3658 -0.00046492 0)
(1.36634 -0.000445795 0)
(1.36685 -0.000426812 0)
(1.36735 -0.000407982 0)
(1.36782 -0.000389319 0)
(1.36828 -0.000370838 0)
(1.36871 -0.000352558 0)
(1.36913 -0.000334498 0)
(1.36952 -0.00031668 0)
(1.36989 -0.000299129 0)
(1.37024 -0.000281871 0)
(1.37058 -0.000264931 0)
(1.37089 -0.00024834 0)
(1.37119 -0.000232126 0)
(1.37146 -0.000216318 0)
(1.37172 -0.000200947 0)
(1.37196 -0.000186042 0)
(1.37218 -0.000171631 0)
(1.37239 -0.000157742 0)
(1.37258 -0.000144399 0)
(1.37275 -0.000131626 0)
(1.37291 -0.000119443 0)
(1.37306 -0.000107868 0)
(1.37318 -9.69147e-05 0)
(1.3733 -8.65944e-05 0)
(1.37341 -7.69135e-05 0)
(1.3735 -6.7875e-05 0)
(1.37358 -5.94778e-05 0)
(1.37365 -5.17167e-05 0)
(1.37371 -4.45826e-05 0)
(1.37377 -3.80628e-05 0)
(1.37381 -3.21408e-05 0)
(1.37385 -2.67967e-05 0)
(1.37388 -2.20077e-05 0)
(1.37391 -1.77483e-05 0)
(1.37393 -1.39906e-05 0)
(1.37395 -1.0705e-05 0)
(1.37396 -7.8603e-06 0)
(1.37397 -5.42435e-06 0)
(1.37397 -3.36437e-06 0)
(1.37397 -1.64746e-06 0)
(1.37398 -2.40863e-07 0)
(1.37397 8.87515e-07 0)
(1.37397 1.76886e-06 0)
(1.37397 2.43317e-06 0)
(1.37397 2.90896e-06 0)
(1.37396 3.22306e-06 0)
(1.37396 3.40048e-06 0)
(1.37395 3.46426e-06 0)
(1.37395 3.43542e-06 0)
(1.37394 3.33289e-06 0)
(1.37394 3.17357e-06 0)
(1.37393 2.9723e-06 0)
(1.37393 2.742e-06 0)
(1.37392 2.49369e-06 0)
(1.37392 2.23665e-06 0)
(1.37392 1.97854e-06 0)
(1.37391 1.72553e-06 0)
(1.37391 1.48243e-06 0)
(1.37391 1.25289e-06 0)
(1.37391 1.03948e-06 0)
(1.37391 8.43887e-07 0)
(1.37391 6.67034e-07 0)
(1.37391 5.09204e-07 0)
(1.3739 3.70167e-07 0)
(1.3739 2.49288e-07 0)
(1.3739 1.45625e-07 0)
(1.3739 5.80137e-08 0)
(1.3739 -1.48537e-08 0)
(1.3739 -7.43731e-08 0)
(1.3739 -1.2197e-07 0)
(1.3739 -1.59057e-07 0)
(1.3739 -1.87003e-07 0)
(1.3739 -2.07106e-07 0)
(1.37391 -2.20576e-07 0)
(1.37391 -2.2852e-07 0)
(1.37391 -2.31941e-07 0)
(1.37391 -2.31731e-07 0)
(1.37391 -2.28674e-07 0)
(1.37391 -2.23448e-07 0)
(1.37391 -2.16633e-07 0)
(1.37391 -2.08717e-07 0)
(1.37391 -2.00104e-07 0)
(1.37391 -1.91124e-07 0)
(1.37391 -1.82037e-07 0)
(1.37391 -1.73046e-07 0)
(1.37391 -1.64307e-07 0)
(1.37391 -1.55932e-07 0)
(1.37391 -1.47995e-07 0)
(1.37391 -1.40543e-07 0)
(1.37391 -1.33601e-07 0)
(1.37391 -1.27175e-07 0)
(1.37391 -1.21255e-07 0)
(1.37391 -1.15823e-07 0)
(1.37391 -1.10854e-07 0)
(1.37391 -1.06316e-07 0)
(1.37391 -1.02175e-07 0)
(1.37391 -9.83935e-08 0)
(1.37391 -9.49385e-08 0)
(1.37391 -9.17758e-08 0)
(1.37391 -8.88725e-08 0)
(1.37391 -8.61977e-08 0)
(1.37391 -8.37238e-08 0)
(1.37391 -8.14261e-08 0)
(1.37391 -7.92814e-08 0)
(1.37391 -7.72687e-08 0)
(1.37391 -7.53706e-08 0)
(1.37391 -7.35722e-08 0)
(1.37391 -7.18595e-08 0)
(1.37391 -7.02198e-08 0)
(1.37391 -6.86436e-08 0)
(1.37391 -6.71231e-08 0)
(1.37391 -6.5651e-08 0)
(1.37391 -6.4221e-08 0)
(1.37391 -6.28279e-08 0)
(1.37391 -6.14683e-08 0)
(1.37391 -6.01392e-08 0)
(1.37391 -5.88371e-08 0)
(1.37391 -5.75597e-08 0)
(1.37391 -5.63066e-08 0)
(1.37391 -5.50782e-08 0)
(1.37391 -5.38726e-08 0)
(1.37391 -5.26863e-08 0)
(1.37391 -5.15201e-08 0)
(1.37391 -5.03766e-08 0)
(1.37392 -4.92549e-08 0)
(1.37392 -4.81526e-08 0)
(1.37392 -4.70704e-08 0)
(1.37392 -4.60096e-08 0)
(1.37392 -4.49704e-08 0)
(1.37392 -4.39515e-08 0)
(1.37392 -4.29522e-08 0)
(1.37392 -4.19726e-08 0)
(1.37392 -4.10129e-08 0)
(1.37392 -4.00737e-08 0)
(1.37392 -3.91546e-08 0)
(1.37392 -3.82543e-08 0)
(1.37392 -3.73709e-08 0)
(1.37392 -3.65068e-08 0)
(1.37392 -3.56628e-08 0)
(1.37392 -3.48366e-08 0)
(1.37392 -3.40261e-08 0)
(1.37392 -3.32341e-08 0)
(1.37392 -3.2462e-08 0)
(1.37392 -3.17057e-08 0)
(1.37392 -3.09639e-08 0)
(1.37392 -3.02402e-08 0)
(1.37392 -2.953e-08 0)
(1.37392 -2.88326e-08 0)
(1.37392 -2.81535e-08 0)
(1.37392 -2.74904e-08 0)
(1.37392 -2.68397e-08 0)
(1.37392 -2.62001e-08 0)
(1.37392 -2.55757e-08 0)
(1.37392 -2.49677e-08 0)
(1.37392 -2.43706e-08 0)
(1.37392 -2.37861e-08 0)
(1.37392 -2.32169e-08 0)
(1.37392 -2.26615e-08 0)
(1.37392 -2.21163e-08 0)
(1.37392 -2.15807e-08 0)
(1.37392 -2.10613e-08 0)
(1.37392 -2.05585e-08 0)
(1.37392 -2.00625e-08 0)
(1.37392 -1.95723e-08 0)
(1.37392 -1.90957e-08 0)
(1.37392 -1.86359e-08 0)
(1.37392 -1.81848e-08 0)
(1.37392 -1.77359e-08 0)
(1.37392 -1.72974e-08 0)
(1.37392 -1.68758e-08 0)
(1.37392 -1.64671e-08 0)
(1.37392 -1.60604e-08 0)
(1.37392 -1.56579e-08 0)
(1.37392 -1.52726e-08 0)
(1.37392 -1.49021e-08 0)
(1.37392 -1.45331e-08 0)
(1.37392 -1.41672e-08 0)
(1.37392 -1.38195e-08 0)
(1.37392 -1.34862e-08 0)
(1.37392 -1.31514e-08 0)
(1.37392 -1.28198e-08 0)
(1.37392 -1.25055e-08 0)
(1.37392 -1.22036e-08 0)
(1.37392 -1.19033e-08 0)
(1.37392 -1.16089e-08 0)
(1.37392 -1.13261e-08 0)
(1.37392 -1.10512e-08 0)
(1.37392 -1.07808e-08 0)
(1.37392 -1.05182e-08 0)
(1.37392 -1.02669e-08 0)
(1.37392 -1.00204e-08 0)
(1.37392 -9.77346e-09 0)
(1.37392 -9.53304e-09 0)
(1.37392 -9.30628e-09 0)
(1.37392 -9.08573e-09 0)
(1.37392 -8.85991e-09 0)
(1.37392 -8.6379e-09 0)
(1.37392 -8.43317e-09 0)
(1.37392 -8.23459e-09 0)
(1.37392 -8.03046e-09 0)
(1.37392 -7.83068e-09 0)
(1.37392 -7.64305e-09 0)
(1.37392 -7.46139e-09 0)
(1.37392 -7.28177e-09 0)
(1.37392 -7.10244e-09 0)
(1.37392 -6.92852e-09 0)
(1.37392 -6.76794e-09 0)
(1.37392 -6.60758e-09 0)
(1.37392 -6.44132e-09 0)
(1.37392 -6.288e-09 0)
(1.37392 -6.14449e-09 0)
(1.37392 -5.99353e-09 0)
(1.37392 -5.84399e-09 0)
(1.37392 -5.70788e-09 0)
(1.37392 -5.57604e-09 0)
(1.37392 -5.43358e-09 0)
(1.37392 -5.29479e-09 0)
(1.37392 -5.18039e-09 0)
(1.37392 -5.05895e-09 0)
(1.37392 -4.91694e-09 0)
(1.37392 -4.79714e-09 0)
(1.37392 -4.6972e-09 0)
(1.37392 -4.57451e-09 0)
(1.37392 -4.44957e-09 0)
(1.37392 -4.35256e-09 0)
(1.37392 -4.25017e-09 0)
(1.37392 -4.13037e-09 0)
(1.37392 -4.02282e-09 0)
(1.37392 -3.92961e-09 0)
(1.37392 -3.83279e-09 0)
(1.37392 -3.73278e-09 0)
(1.37392 -3.63361e-09 0)
(1.37392 -3.53831e-09 0)
(1.37392 -3.45993e-09 0)
(1.37392 -3.38166e-09 0)
(1.37392 -3.27729e-09 0)
(1.37392 -3.19382e-09 0)
(1.37392 -3.14864e-09 0)
(1.37392 -3.06329e-09 0)
(1.37392 -2.95549e-09 0)
(1.37392 -2.91359e-09 0)
(1.37392 -2.87474e-09 0)
(1.37392 -2.76802e-09 0)
(1.37392 -2.69421e-09 0)
(1.37392 -2.68255e-09 0)
(1.37392 -2.61346e-09 0)
(1.37392 -2.51644e-09 0)
(1.37392 -2.49258e-09 0)
(1.37392 -2.46497e-09 0)
(1.37392 -2.38235e-09 0)
(1.37392 -2.32949e-09 0)
(1.37392 -2.31179e-09 0)
(1.37392 -2.25364e-09 0)
(1.37392 -2.18673e-09 0)
(1.37392 -2.16754e-09 0)
(1.37392 -2.12699e-09 0)
(1.37392 -2.04637e-09 0)
(1.37392 -2.00966e-09 0)
(1.37392 -2.00061e-09 0)
(1.37392 -1.93647e-09 0)
(1.37392 -1.8603e-09 0)
(1.37392 -1.84433e-09 0)
(1.37392 -1.82418e-09 0)
(1.37392 -1.75752e-09 0)
(1.37392 -1.71048e-09 0)
(1.37392 -1.67034e-09 0)
(1.37392 -1.64615e-09 0)
(1.37392 -1.62091e-09 0)
(1.37392 -1.56642e-09 0)
(1.37392 -1.5195e-09 0)
(1.37392 -1.49948e-09 0)
(1.37392 -1.48123e-09 0)
(1.37392 -1.44273e-09 0)
(1.37392 -1.39528e-09 0)
(1.37392 -1.35552e-09 0)
(1.37392 -1.35005e-09 0)
(1.37392 -1.33511e-09 0)
(1.37392 -1.27252e-09 0)
(1.37392 -1.2396e-09 0)
(1.37392 -1.23969e-09 0)
(1.37392 -1.21991e-09 0)
(1.37392 -1.16529e-09 0)
(1.37392 -1.13958e-09 0)
(1.37392 -1.15015e-09 0)
(1.37392 -1.12135e-09 0)
(1.37392 -1.06988e-09 0)
(1.37392 -1.08537e-09 0)
(1.37392 -1.08232e-09 0)
(1.37392 -1.02397e-09 0)
(1.37392 -1.00469e-09 0)
(1.37392 -1.01248e-09 0)
(1.37392 -1.01835e-09 0)
(1.37392 -9.48961e-10 0)
(1.37392 -9.16097e-10 0)
(1.37392 -9.56069e-10 0)
(1.37392 -9.26734e-10 0)
(1.37392 -8.94835e-10 0)
(1.37392 -8.79431e-10 0)
(1.37392 -8.47639e-10 0)
(1.37392 -8.94931e-10 0)
(1.37392 -8.74714e-10 0)
(1.37392 -7.97404e-10 0)
(1.37392 -8.38017e-10 0)
(1.37392 -8.29285e-10 0)
(1.37392 -7.91721e-10 0)
(1.37392 -7.85774e-10 0)
(1.37392 -7.8658e-10 0)
(1.37392 -7.51855e-10 0)
(1.37392 -7.18084e-10 0)
(1.37392 -7.45795e-10 0)
(1.37392 -6.98612e-10 0)
(1.37392 -6.77858e-10 0)
(1.37392 -7.04493e-10 0)
(1.37392 -6.33479e-10 0)
(1.37392 -6.59491e-10 0)
(1.37392 -6.37232e-10 0)
(1.37392 -6.20233e-10 0)
(1.37392 -6.54221e-10 0)
(1.37392 -5.44836e-10 0)
(1.37392 -6.46877e-10 0)
(1.37392 -5.58214e-10 0)
(1.37392 -5.51594e-10 0)
(1.37392 -6.29862e-10 0)
(1.37392 -4.73794e-10 0)
(1.37392 -5.82512e-10 0)
(1.37392 -5.22673e-10 0)
(1.37392 -5.21664e-10 0)
(1.37392 -5.36793e-10 0)
(1.37392 -4.68572e-10 0)
(1.37392 -5.41405e-10 0)
(1.37392 -4.96057e-10 0)
(1.37392 -4.9305e-10 0)
(1.37392 -4.61609e-10 0)
(1.37392 -5.23867e-10 0)
(1.37392 -4.59899e-10 0)
(1.37392 -4.91946e-10 0)
(1.37392 -4.51442e-10 0)
(1.37392 -4.57975e-10 0)
(1.37392 -4.68926e-10 0)
(1.37392 -4.80392e-10 0)
(1.37392 -4.45638e-10 0)
(1.37392 -4.1071e-10 0)
(1.37392 -4.82026e-10 0)
(1.37392 -4.12811e-10 0)
(1.37392 -4.08021e-10 0)
(1.37392 -4.674e-10 0)
(1.37392 -3.60885e-10 0)
(1.37392 -3.92476e-10 0)
(1.37392 -4.3164e-10 0)
(1.37392 -3.43679e-10 0)
(1.37392 -4.09615e-10 0)
(1.37392 -3.48868e-10 0)
(1.37392 -4.2613e-10 0)
(1.37392 -3.19783e-10 0)
(1.37392 -4.07322e-10 0)
(1.37392 -3.45007e-10 0)
(1.37392 -3.68099e-10 0)
(1.37392 -3.5662e-10 0)
(1.37392 -3.34297e-10 0)
(1.37392 -3.49825e-10 0)
(1.37392 -3.60026e-10 0)
(1.37392 -3.20241e-10 0)
(1.37392 -3.49781e-10 0)
(1.37392 -2.92282e-10 0)
(1.37392 -3.34022e-10 0)
(1.37392 -3.1425e-10 0)
(1.37392 -3.02073e-10 0)
(1.37392 -3.49752e-10 0)
(1.37392 -3.05717e-10 0)
(1.37392 -4.74538e-10 0)
(1.37392 -2.77207e-10 0)
(1.37392 -6.45756e-10 0)
(1.37392 -3.52077e-10 0)
(1.37392 -8.38998e-10 0)
(1.37392 -3.76024e-10 0)
(1.37392 -7.02538e-10 0)
(1.37392 2.85726e-10 0)
(1.37392 2.25606e-09 0)
(1.00001 -0.000165025 0)
(1.00006 -0.000496271 0)
(1.00017 -0.000828871 0)
(1.00035 -0.0011623 0)
(1.00059 -0.00149607 0)
(1.00089 -0.00182969 0)
(1.00125 -0.00216266 0)
(1.00167 -0.00249448 0)
(1.00215 -0.00282465 0)
(1.00269 -0.00315268 0)
(1.0033 -0.00347806 0)
(1.00397 -0.00380031 0)
(1.00469 -0.00411895 0)
(1.00548 -0.00443352 0)
(1.00633 -0.00474356 0)
(1.00725 -0.00504862 0)
(1.00822 -0.00534829 0)
(1.00925 -0.00564216 0)
(1.01033 -0.00592985 0)
(1.01148 -0.006211 0)
(1.01268 -0.00648526 0)
(1.01394 -0.00675233 0)
(1.01525 -0.00701191 0)
(1.01662 -0.00726374 0)
(1.01804 -0.00750758 0)
(1.01951 -0.00774322 0)
(1.02103 -0.00797048 0)
(1.0226 -0.0081892 0)
(1.02421 -0.00839926 0)
(1.02588 -0.00860054 0)
(1.02758 -0.00879298 0)
(1.02933 -0.00897652 0)
(1.03112 -0.00915114 0)
(1.03296 -0.00931683 0)
(1.03483 -0.00947361 0)
(1.03673 -0.00962153 0)
(1.03867 -0.00976065 0)
(1.04065 -0.00989106 0)
(1.04266 -0.0100128 0)
(1.0447 -0.0101261 0)
(1.04677 -0.0102311 0)
(1.04886 -0.0103278 0)
(1.05099 -0.0104165 0)
(1.05314 -0.0104973 0)
(1.05531 -0.0105705 0)
(1.0575 -0.0106361 0)
(1.05972 -0.0106945 0)
(1.06195 -0.0107458 0)
(1.0642 -0.0107902 0)
(1.06647 -0.010828 0)
(1.06875 -0.0108594 0)
(1.07105 -0.0108847 0)
(1.07336 -0.010904 0)
(1.07568 -0.0109175 0)
(1.07802 -0.0109256 0)
(1.08036 -0.0109285 0)
(1.08271 -0.0109263 0)
(1.08507 -0.0109194 0)
(1.08744 -0.0109079 0)
(1.08981 -0.010892 0)
(1.09219 -0.010872 0)
(1.09457 -0.0108482 0)
(1.09695 -0.0108206 0)
(1.09934 -0.0107895 0)
(1.10173 -0.0107552 0)
(1.10411 -0.0107177 0)
(1.1065 -0.0106773 0)
(1.10889 -0.0106342 0)
(1.11128 -0.0105886 0)
(1.11366 -0.0105406 0)
(1.11605 -0.0104904 0)
(1.11843 -0.0104381 0)
(1.12081 -0.010384 0)
(1.12318 -0.010328 0)
(1.12555 -0.0102705 0)
(1.12791 -0.0102115 0)
(1.13027 -0.0101512 0)
(1.13263 -0.0100896 0)
(1.13498 -0.0100269 0)
(1.13732 -0.00996327 0)
(1.13966 -0.00989872 0)
(1.14199 -0.00983337 0)
(1.14431 -0.00976734 0)
(1.14662 -0.00970069 0)
(1.14893 -0.00963353 0)
(1.15123 -0.00956592 0)
(1.15353 -0.00949795 0)
(1.15581 -0.00942969 0)
(1.15809 -0.00936119 0)
(1.16036 -0.00929252 0)
(1.16262 -0.00922374 0)
(1.16487 -0.00915491 0)
(1.16712 -0.00908606 0)
(1.16935 -0.00901725 0)
(1.17158 -0.00894852 0)
(1.17379 -0.0088799 0)
(1.176 -0.00881144 0)
(1.1782 -0.00874317 0)
(1.18039 -0.00867511 0)
(1.18257 -0.00860729 0)
(1.18474 -0.00853974 0)
(1.18691 -0.00847248 0)
(1.18906 -0.00840553 0)
(1.19121 -0.0083389 0)
(1.19334 -0.00827261 0)
(1.19547 -0.00820667 0)
(1.19758 -0.00814109 0)
(1.19969 -0.00807589 0)
(1.20179 -0.00801107 0)
(1.20387 -0.00794663 0)
(1.20595 -0.00788258 0)
(1.20802 -0.00781893 0)
(1.21008 -0.00775566 0)
(1.21213 -0.0076928 0)
(1.21417 -0.00763032 0)
(1.2162 -0.00756824 0)
(1.21823 -0.00750654 0)
(1.22024 -0.00744523 0)
(1.22224 -0.00738429 0)
(1.22424 -0.00732373 0)
(1.22622 -0.00726354 0)
(1.22819 -0.0072037 0)
(1.23016 -0.00714421 0)
(1.23212 -0.00708507 0)
(1.23406 -0.00702626 0)
(1.236 -0.00696777 0)
(1.23793 -0.0069096 0)
(1.23984 -0.00685172 0)
(1.24175 -0.00679414 0)
(1.24365 -0.00673684 0)
(1.24554 -0.0066798 0)
(1.24742 -0.00662302 0)
(1.24929 -0.00656647 0)
(1.25115 -0.00651016 0)
(1.253 -0.00645406 0)
(1.25484 -0.00639817 0)
(1.25668 -0.00634246 0)
(1.2585 -0.00628692 0)
(1.26031 -0.00623155 0)
(1.26211 -0.00617631 0)
(1.2639 -0.00612121 0)
(1.26569 -0.00606623 0)
(1.26746 -0.00601134 0)
(1.26922 -0.00595654 0)
(1.27097 -0.00590181 0)
(1.27271 -0.00584713 0)
(1.27445 -0.00579249 0)
(1.27617 -0.00573788 0)
(1.27788 -0.00568327 0)
(1.27958 -0.00562865 0)
(1.28127 -0.00557401 0)
(1.28295 -0.00551933 0)
(1.28461 -0.00546459 0)
(1.28627 -0.00540978 0)
(1.28792 -0.00535489 0)
(1.28955 -0.00529989 0)
(1.29117 -0.00524478 0)
(1.29278 -0.00518953 0)
(1.29438 -0.00513414 0)
(1.29597 -0.00507858 0)
(1.29755 -0.00502285 0)
(1.29911 -0.00496692 0)
(1.30066 -0.00491079 0)
(1.3022 -0.00485445 0)
(1.30373 -0.00479787 0)
(1.30524 -0.00474105 0)
(1.30674 -0.00468399 0)
(1.30823 -0.00462665 0)
(1.30971 -0.00456905 0)
(1.31117 -0.00451117 0)
(1.31262 -0.004453 0)
(1.31405 -0.00439453 0)
(1.31547 -0.00433577 0)
(1.31687 -0.0042767 0)
(1.31826 -0.00421733 0)
(1.31964 -0.00415766 0)
(1.321 -0.00409768 0)
(1.32234 -0.0040374 0)
(1.32367 -0.00397682 0)
(1.32499 -0.00391595 0)
(1.32628 -0.0038548 0)
(1.32757 -0.00379337 0)
(1.32883 -0.00373168 0)
(1.33008 -0.00366975 0)
(1.33131 -0.00360758 0)
(1.33253 -0.00354519 0)
(1.33372 -0.00348261 0)
(1.33491 -0.00341985 0)
(1.33607 -0.00335693 0)
(1.33721 -0.00329389 0)
(1.33834 -0.00323073 0)
(1.33945 -0.0031675 0)
(1.34054 -0.00310422 0)
(1.34161 -0.00304091 0)
(1.34266 -0.0029776 0)
(1.3437 -0.00291433 0)
(1.34472 -0.00285111 0)
(1.34571 -0.00278799 0)
(1.34669 -0.00272498 0)
(1.34765 -0.0026621 0)
(1.34859 -0.0025994 0)
(1.34951 -0.00253688 0)
(1.35041 -0.00247458 0)
(1.35129 -0.00241251 0)
(1.35215 -0.00235069 0)
(1.35299 -0.00228914 0)
(1.35381 -0.00222787 0)
(1.35462 -0.00216688 0)
(1.3554 -0.00210621 0)
(1.35616 -0.00204583 0)
(1.3569 -0.00198578 0)
(1.35763 -0.00192604 0)
(1.35833 -0.00186663 0)
(1.35901 -0.00180754 0)
(1.35968 -0.00174877 0)
(1.36032 -0.00169034 0)
(1.36094 -0.00163224 0)
(1.36155 -0.00157448 0)
(1.36213 -0.00151706 0)
(1.36269 -0.00146001 0)
(1.36324 -0.00140332 0)
(1.36376 -0.00134702 0)
(1.36427 -0.00129113 0)
(1.36475 -0.00123568 0)
(1.36521 -0.00118071 0)
(1.36566 -0.00112625 0)
(1.36608 -0.00107234 0)
(1.36649 -0.00101906 0)
(1.36687 -0.000966436 0)
(1.36724 -0.000914551 0)
(1.36759 -0.00086347 0)
(1.36791 -0.000813267 0)
(1.36822 -0.000764022 0)
(1.36851 -0.000715815 0)
(1.36879 -0.000668731 0)
(1.36904 -0.000622855 0)
(1.36928 -0.000578272 0)
(1.3695 -0.000535067 0)
(1.36971 -0.000493319 0)
(1.36989 -0.000453106 0)
(1.37007 -0.0004145 0)
(1.37023 -0.000377565 0)
(1.37037 -0.000342361 0)
(1.3705 -0.000308935 0)
(1.37062 -0.000277326 0)
(1.37072 -0.000247564 0)
(1.37082 -0.000219665 0)
(1.3709 -0.000193636 0)
(1.37097 -0.000169473 0)
(1.37104 -0.000147157 0)
(1.37109 -0.000126662 0)
(1.37114 -0.000107947 0)
(1.37118 -9.09635e-05 0)
(1.37121 -7.56524e-05 0)
(1.37124 -6.19462e-05 0)
(1.37126 -4.97695e-05 0)
(1.37128 -3.90407e-05 0)
(1.37129 -2.96727e-05 0)
(1.3713 -2.15746e-05 0)
(1.37131 -1.46525e-05 0)
(1.37131 -8.811e-06 0)
(1.37132 -3.95445e-06 0)
(1.37132 1.20176e-08 0)
(1.37131 3.18155e-06 0)
(1.37131 5.64446e-06 0)
(1.37131 7.4874e-06 0)
(1.3713 8.79269e-06 0)
(1.3713 9.63772e-06 0)
(1.37129 1.00945e-05 0)
(1.37129 1.02293e-05 0)
(1.37128 1.01024e-05 0)
(1.37128 9.76832e-06 0)
(1.37127 9.27531e-06 0)
(1.37127 8.66592e-06 0)
(1.37127 7.97697e-06 0)
(1.37126 7.23992e-06 0)
(1.37126 6.48116e-06 0)
(1.37126 5.7224e-06 0)
(1.37125 4.98107e-06 0)
(1.37125 4.27075e-06 0)
(1.37125 3.60158e-06 0)
(1.37125 2.98074e-06 0)
(1.37125 2.41279e-06 0)
(1.37125 1.90015e-06 0)
(1.37125 1.4434e-06 0)
(1.37125 1.0417e-06 0)
(1.37124 6.93033e-07 0)
(1.37124 3.94535e-07 0)
(1.37124 1.42719e-07 0)
(1.37124 -6.62947e-08 0)
(1.37124 -2.3662e-07 0)
(1.37124 -3.72442e-07 0)
(1.37125 -4.77896e-07 0)
(1.37125 -5.56976e-07 0)
(1.37125 -6.13462e-07 0)
(1.37125 -6.5087e-07 0)
(1.37125 -6.72418e-07 0)
(1.37125 -6.81007e-07 0)
(1.37125 -6.7922e-07 0)
(1.37125 -6.6932e-07 0)
(1.37125 -6.53266e-07 0)
(1.37125 -6.32726e-07 0)
(1.37125 -6.09104e-07 0)
(1.37125 -5.8356e-07 0)
(1.37125 -5.57037e-07 0)
(1.37125 -5.30282e-07 0)
(1.37125 -5.03876e-07 0)
(1.37125 -4.78255e-07 0)
(1.37125 -4.53735e-07 0)
(1.37125 -4.3053e-07 0)
(1.37125 -4.0877e-07 0)
(1.37125 -3.88518e-07 0)
(1.37125 -3.69787e-07 0)
(1.37125 -3.52548e-07 0)
(1.37125 -3.36743e-07 0)
(1.37125 -3.22292e-07 0)
(1.37125 -3.09103e-07 0)
(1.37125 -2.97074e-07 0)
(1.37125 -2.86098e-07 0)
(1.37125 -2.76073e-07 0)
(1.37125 -2.66899e-07 0)
(1.37125 -2.58479e-07 0)
(1.37125 -2.50724e-07 0)
(1.37125 -2.43552e-07 0)
(1.37125 -2.3689e-07 0)
(1.37125 -2.30669e-07 0)
(1.37125 -2.24827e-07 0)
(1.37125 -2.19315e-07 0)
(1.37125 -2.14089e-07 0)
(1.37125 -2.09108e-07 0)
(1.37125 -2.04338e-07 0)
(1.37125 -1.99753e-07 0)
(1.37125 -1.9533e-07 0)
(1.37125 -1.91047e-07 0)
(1.37125 -1.86886e-07 0)
(1.37125 -1.82832e-07 0)
(1.37125 -1.78878e-07 0)
(1.37125 -1.75015e-07 0)
(1.37125 -1.71233e-07 0)
(1.37125 -1.67526e-07 0)
(1.37125 -1.63888e-07 0)
(1.37125 -1.60315e-07 0)
(1.37126 -1.56806e-07 0)
(1.37126 -1.53357e-07 0)
(1.37126 -1.49968e-07 0)
(1.37126 -1.46643e-07 0)
(1.37126 -1.4338e-07 0)
(1.37126 -1.40173e-07 0)
(1.37126 -1.3702e-07 0)
(1.37126 -1.33926e-07 0)
(1.37126 -1.30892e-07 0)
(1.37126 -1.27917e-07 0)
(1.37126 -1.25001e-07 0)
(1.37126 -1.22143e-07 0)
(1.37126 -1.1934e-07 0)
(1.37126 -1.16593e-07 0)
(1.37126 -1.13903e-07 0)
(1.37126 -1.11272e-07 0)
(1.37126 -1.08694e-07 0)
(1.37126 -1.06169e-07 0)
(1.37126 -1.03701e-07 0)
(1.37126 -1.01288e-07 0)
(1.37126 -9.89231e-08 0)
(1.37126 -9.66089e-08 0)
(1.37126 -9.43503e-08 0)
(1.37126 -9.21408e-08 0)
(1.37126 -8.99722e-08 0)
(1.37126 -8.78532e-08 0)
(1.37126 -8.57876e-08 0)
(1.37126 -8.37644e-08 0)
(1.37126 -8.1778e-08 0)
(1.37126 -7.98328e-08 0)
(1.37126 -7.79352e-08 0)
(1.37126 -7.60808e-08 0)
(1.37126 -7.42642e-08 0)
(1.37126 -7.2489e-08 0)
(1.37126 -7.07566e-08 0)
(1.37126 -6.90616e-08 0)
(1.37126 -6.73984e-08 0)
(1.37126 -6.57702e-08 0)
(1.37126 -6.41849e-08 0)
(1.37126 -6.26392e-08 0)
(1.37126 -6.11231e-08 0)
(1.37126 -5.96367e-08 0)
(1.37126 -5.81879e-08 0)
(1.37126 -5.67771e-08 0)
(1.37126 -5.53939e-08 0)
(1.37126 -5.40361e-08 0)
(1.37126 -5.27166e-08 0)
(1.37126 -5.14351e-08 0)
(1.37126 -5.0172e-08 0)
(1.37126 -4.89259e-08 0)
(1.37126 -4.77174e-08 0)
(1.37126 -4.65507e-08 0)
(1.37126 -4.54078e-08 0)
(1.37126 -4.42811e-08 0)
(1.37126 -4.31834e-08 0)
(1.37126 -4.2119e-08 0)
(1.37126 -4.10765e-08 0)
(1.37126 -4.00564e-08 0)
(1.37126 -3.90691e-08 0)
(1.37126 -3.81073e-08 0)
(1.37126 -3.71582e-08 0)
(1.37126 -3.62318e-08 0)
(1.37126 -3.53409e-08 0)
(1.37126 -3.4477e-08 0)
(1.37126 -3.36285e-08 0)
(1.37126 -3.27977e-08 0)
(1.37126 -3.19971e-08 0)
(1.37126 -3.12225e-08 0)
(1.37126 -3.04546e-08 0)
(1.37126 -2.96975e-08 0)
(1.37126 -2.89721e-08 0)
(1.37126 -2.82797e-08 0)
(1.37126 -2.75983e-08 0)
(1.37126 -2.69167e-08 0)
(1.37126 -2.62507e-08 0)
(1.37126 -2.56115e-08 0)
(1.37126 -2.49921e-08 0)
(1.37126 -2.4383e-08 0)
(1.37126 -2.3783e-08 0)
(1.37126 -2.31953e-08 0)
(1.37126 -2.26251e-08 0)
(1.37126 -2.20737e-08 0)
(1.37126 -2.15418e-08 0)
(1.37126 -2.10259e-08 0)
(1.37126 -2.05135e-08 0)
(1.37126 -2.00051e-08 0)
(1.37126 -1.95207e-08 0)
(1.37126 -1.90559e-08 0)
(1.37126 -1.85921e-08 0)
(1.37126 -1.81446e-08 0)
(1.37126 -1.77211e-08 0)
(1.37126 -1.72954e-08 0)
(1.37126 -1.68654e-08 0)
(1.37126 -1.64596e-08 0)
(1.37126 -1.60774e-08 0)
(1.37126 -1.56869e-08 0)
(1.37126 -1.52906e-08 0)
(1.37126 -1.49202e-08 0)
(1.37126 -1.45642e-08 0)
(1.37126 -1.42021e-08 0)
(1.37126 -1.38515e-08 0)
(1.37126 -1.35214e-08 0)
(1.37126 -1.31898e-08 0)
(1.37126 -1.28529e-08 0)
(1.37126 -1.25308e-08 0)
(1.37126 -1.22252e-08 0)
(1.37126 -1.19187e-08 0)
(1.37126 -1.16071e-08 0)
(1.37126 -1.13041e-08 0)
(1.37126 -1.10209e-08 0)
(1.37126 -1.07486e-08 0)
(1.37126 -1.04722e-08 0)
(1.37126 -1.01957e-08 0)
(1.37126 -9.93989e-09 0)
(1.37126 -9.70345e-09 0)
(1.37126 -9.45058e-09 0)
(1.37126 -9.20398e-09 0)
(1.37126 -9.00425e-09 0)
(1.37126 -8.78951e-09 0)
(1.37126 -8.54369e-09 0)
(1.37126 -8.35061e-09 0)
(1.37126 -8.19678e-09 0)
(1.37126 -7.99333e-09 0)
(1.37126 -7.78188e-09 0)
(1.37126 -7.63665e-09 0)
(1.37126 -7.48035e-09 0)
(1.37126 -7.28329e-09 0)
(1.37126 -7.13508e-09 0)
(1.37126 -7.00131e-09 0)
(1.37126 -6.83041e-09 0)
(1.37126 -6.68843e-09 0)
(1.37126 -6.57227e-09 0)
(1.37126 -6.41596e-09 0)
(1.37126 -6.26308e-09 0)
(1.37126 -6.16976e-09 0)
(1.37126 -6.04283e-09 0)
(1.37126 -5.87768e-09 0)
(1.37126 -5.75897e-09 0)
(1.37126 -5.6476e-09 0)
(1.37126 -5.52138e-09 0)
(1.37126 -5.39412e-09 0)
(1.37126 -5.26889e-09 0)
(1.37126 -5.15837e-09 0)
(1.37126 -5.05179e-09 0)
(1.37126 -4.93194e-09 0)
(1.37126 -4.79709e-09 0)
(1.37126 -4.70617e-09 0)
(1.37126 -4.59452e-09 0)
(1.37126 -4.47699e-09 0)
(1.37126 -4.39394e-09 0)
(1.37126 -4.27077e-09 0)
(1.37126 -4.16678e-09 0)
(1.37126 -4.10306e-09 0)
(1.37126 -4.00648e-09 0)
(1.37126 -3.87933e-09 0)
(1.37126 -3.79906e-09 0)
(1.37126 -3.75676e-09 0)
(1.37126 -3.66172e-09 0)
(1.37126 -3.54575e-09 0)
(1.37126 -3.50082e-09 0)
(1.37126 -3.44824e-09 0)
(1.37126 -3.32653e-09 0)
(1.37126 -3.29384e-09 0)
(1.37126 -3.24298e-09 0)
(1.37126 -3.14016e-09 0)
(1.37126 -3.09977e-09 0)
(1.37126 -3.05591e-09 0)
(1.37126 -2.99714e-09 0)
(1.37126 -2.93683e-09 0)
(1.37126 -2.88609e-09 0)
(1.37126 -2.82487e-09 0)
(1.37126 -2.78856e-09 0)
(1.37126 -2.76187e-09 0)
(1.37126 -2.67812e-09 0)
(1.37126 -2.61739e-09 0)
(1.37126 -2.61799e-09 0)
(1.37126 -2.53396e-09 0)
(1.37126 -2.50185e-09 0)
(1.37126 -2.48023e-09 0)
(1.37126 -2.41457e-09 0)
(1.37126 -2.42427e-09 0)
(1.37126 -2.3396e-09 0)
(1.37126 -2.32769e-09 0)
(1.37126 -2.32451e-09 0)
(1.37126 -2.24144e-09 0)
(1.37126 -2.19461e-09 0)
(1.37126 -2.18859e-09 0)
(1.37126 -2.14781e-09 0)
(1.37126 -2.07591e-09 0)
(1.37126 -2.04531e-09 0)
(1.37126 -1.99206e-09 0)
(1.37126 -1.95248e-09 0)
(1.37126 -1.95065e-09 0)
(1.37126 -1.84558e-09 0)
(1.37126 -1.84005e-09 0)
(1.37126 -1.80547e-09 0)
(1.37126 -1.77608e-09 0)
(1.37126 -1.75467e-09 0)
(1.37126 -1.65178e-09 0)
(1.37126 -1.73611e-09 0)
(1.37126 -1.59935e-09 0)
(1.37126 -1.62371e-09 0)
(1.37126 -1.63701e-09 0)
(1.37126 -1.46862e-09 0)
(1.37126 -1.56844e-09 0)
(1.37126 -1.50422e-09 0)
(1.37126 -1.4513e-09 0)
(1.37126 -1.4667e-09 0)
(1.37126 -1.39658e-09 0)
(1.37126 -1.41557e-09 0)
(1.37126 -1.39704e-09 0)
(1.37126 -1.37504e-09 0)
(1.37126 -1.34757e-09 0)
(1.37126 -1.38253e-09 0)
(1.37126 -1.31415e-09 0)
(1.37126 -1.34119e-09 0)
(1.37126 -1.326e-09 0)
(1.37126 -1.32282e-09 0)
(1.37126 -1.27381e-09 0)
(1.37126 -1.29399e-09 0)
(1.37126 -1.24751e-09 0)
(1.37126 -1.25289e-09 0)
(1.37126 -1.24328e-09 0)
(1.37126 -1.21478e-09 0)
(1.37126 -1.18566e-09 0)
(1.37126 -1.19698e-09 0)
(1.37126 -1.13768e-09 0)
(1.37126 -1.11986e-09 0)
(1.37126 -1.13724e-09 0)
(1.37126 -1.05164e-09 0)
(1.37126 -1.09974e-09 0)
(1.37126 -1.03092e-09 0)
(1.37126 -1.07438e-09 0)
(1.37126 -1.02679e-09 0)
(1.37126 -1.01739e-09 0)
(1.37126 -1.01267e-09 0)
(1.37126 -9.91886e-10 0)
(1.37126 -9.97773e-10 0)
(1.37126 -9.69619e-10 0)
(1.37126 -9.58171e-10 0)
(1.37126 -9.38222e-10 0)
(1.37126 -9.42364e-10 0)
(1.37126 -9.2791e-10 0)
(1.37126 -9.22e-10 0)
(1.37126 -8.43417e-10 0)
(1.37126 -9.34731e-10 0)
(1.37126 -8.42759e-10 0)
(1.37126 -1.03276e-09 0)
(1.37126 -8.25111e-10 0)
(1.37126 -1.28007e-09 0)
(1.37126 -8.98738e-10 0)
(1.37126 -1.79815e-09 0)
(1.37126 -1.03893e-09 0)
(1.37126 -2.45102e-09 0)
(1.37126 -1.13618e-09 0)
(1.37126 -2.17176e-09 0)
(1.37126 1.79581e-10 0)
(1.37126 5.68668e-09 0)