/*--------------------------------*- C++ -*----------------------------------*\
  =========                 |
  \\      /  F ield         | OpenFOAM: The Open Source CFD Toolbox
   \\    /   O peration     | Website:  https://openfoam.org
    \\  /    A nd           | Version:  7
     \\/     M anipulation  |
\*---------------------------------------------------------------------------*/
FoamFile
{
    version     2.0;
    format      ascii;
    class       volScalarField;
    location    "9";
    object      p;
}
// * * * * * * * * * * * * * * * * * * * * * * * * * * * * * * * * * * * * * //

dimensions      [0 2 -2 0 0 0 0];

internalField   nonuniform List<scalar> 
48000
(
1.89977
1.8998
1.89978
1.89969
1.89954
1.89933
1.89906
1.89873
1.89835
1.8979
1.89739
1.89682
1.89619
1.8955
1.89475
1.89394
1.89307
1.89215
1.89116
1.89012
1.88901
1.88786
1.88664
1.88537
1.88405
1.88268
1.88125
1.87977
1.87824
1.87667
1.87504
1.87337
1.87166
1.8699
1.8681
1.86626
1.86437
1.86245
1.8605
1.8585
1.85648
1.85442
1.85233
1.85021
1.84806
1.84588
1.84368
1.84145
1.8392
1.83693
1.83464
1.83232
1.82999
1.82764
1.82528
1.8229
1.82051
1.8181
1.81568
1.81325
1.81081
1.80837
1.80591
1.80345
1.80098
1.7985
1.79602
1.79354
1.79105
1.78857
1.78608
1.78358
1.78109
1.7786
1.7761
1.77361
1.77112
1.76863
1.76615
1.76366
1.76118
1.75871
1.75623
1.75376
1.7513
1.74884
1.74638
1.74393
1.74149
1.73905
1.73661
1.73418
1.73176
1.72934
1.72693
1.72453
1.72213
1.71974
1.71735
1.71498
1.7126
1.71024
1.70788
1.70553
1.70318
1.70084
1.69851
1.69618
1.69386
1.69155
1.68924
1.68694
1.68464
1.68235
1.68007
1.67779
1.67552
1.67326
1.671
1.66874
1.66649
1.66425
1.66201
1.65978
1.65755
1.65533
1.65311
1.65089
1.64868
1.64648
1.64428
1.64208
1.63989
1.6377
1.63552
1.63334
1.63116
1.62898
1.62681
1.62465
1.62248
1.62032
1.61816
1.61601
1.61385
1.6117
1.60955
1.60741
1.60526
1.60312
1.60098
1.59885
1.59671
1.59458
1.59244
1.59031
1.58818
1.58605
1.58392
1.5818
1.57967
1.57755
1.57542
1.5733
1.57118
1.56905
1.56693
1.56481
1.56269
1.56057
1.55845
1.55633
1.55421
1.55209
1.54996
1.54784
1.54572
1.5436
1.54148
1.53935
1.53723
1.53511
1.53298
1.53086
1.52873
1.5266
1.52447
1.52234
1.52021
1.51808
1.51595
1.51381
1.51168
1.50954
1.5074
1.50526
1.50312
1.50098
1.49884
1.49669
1.49454
1.49239
1.49024
1.48809
1.48594
1.48378
1.48162
1.47946
1.4773
1.47513
1.47297
1.4708
1.46863
1.46645
1.46428
1.4621
1.45992
1.45774
1.45555
1.45337
1.45118
1.44898
1.44679
1.44459
1.44239
1.44019
1.43798
1.43577
1.43356
1.43135
1.42913
1.42691
1.42469
1.42246
1.42023
1.418
1.41577
1.41353
1.41129
1.40904
1.4068
1.40455
1.40229
1.40003
1.39777
1.39551
1.39324
1.39097
1.3887
1.38642
1.38413
1.38185
1.37956
1.37727
1.37497
1.37267
1.37037
1.36806
1.36575
1.36343
1.36111
1.35879
1.35646
1.35413
1.35179
1.34945
1.34711
1.34476
1.34241
1.34005
1.33769
1.33532
1.33295
1.33058
1.3282
1.32582
1.32343
1.32104
1.31864
1.31624
1.31383
1.31142
1.309
1.30658
1.30416
1.30172
1.29929
1.29685
1.2944
1.29195
1.2895
1.28703
1.28457
1.2821
1.27962
1.27714
1.27465
1.27216
1.26966
1.26716
1.26465
1.26213
1.25961
1.25708
1.25455
1.25201
1.24947
1.24692
1.24437
1.2418
1.23924
1.23666
1.23408
1.2315
1.22891
1.22631
1.2237
1.22109
1.21848
1.21585
1.21322
1.21059
1.20794
1.20529
1.20264
1.19998
1.19731
1.19463
1.19195
1.18926
1.18656
1.18385
1.18114
1.17842
1.1757
1.17297
1.17023
1.16748
1.16472
1.16196
1.15919
1.15641
1.15363
1.15084
1.14804
1.14523
1.14241
1.13959
1.13676
1.13392
1.13107
1.12821
1.12535
1.12248
1.1196
1.11671
1.11381
1.11091
1.10799
1.10507
1.10214
1.0992
1.09625
1.09329
1.09033
1.08735
1.08437
1.08138
1.07838
1.07536
1.07234
1.06932
1.06628
1.06323
1.06017
1.0571
1.05403
1.05094
1.04785
1.04474
1.04163
1.0385
1.03537
1.03222
1.02907
1.0259
1.02273
1.01954
1.01635
1.01314
1.00993
1.0067
1.00346
1.00022
0.996957
0.993688
0.990408
0.987118
0.983816
0.980504
0.977181
0.973846
0.970501
0.967144
0.963776
0.960397
0.957006
0.953604
0.95019
0.946765
0.943328
0.939879
0.936419
0.932946
0.929462
0.925966
0.922458
0.918938
0.915405
0.91186
0.908303
0.904734
0.901152
0.897558
0.893951
0.890331
0.886699
0.883054
0.879396
0.875725
0.872042
0.868345
0.864635
0.860912
0.857176
0.853426
0.849663
0.845887
0.842097
0.838293
0.834476
0.830646
0.826801
0.822943
0.81907
0.815184
0.811284
0.807369
0.80344
0.799498
0.79554
0.791569
0.787583
0.783582
0.779567
0.775537
0.771493
0.767433
0.763359
0.75927
0.755166
0.751047
0.746912
0.742763
0.738598
0.734418
0.730222
0.726011
0.721785
0.717543
0.713285
0.709011
0.704722
0.700416
0.696095
0.691758
0.687404
0.683035
0.678649
0.674247
0.669828
0.665393
0.660942
0.656473
0.651989
0.647487
0.642969
0.638433
0.633881
0.629311
0.624725
0.620121
0.6155
0.610862
0.606206
0.601532
0.596841
0.592132
0.587406
0.582661
0.577899
0.573118
0.56832
0.563503
0.558668
0.553815
0.548943
0.544053
0.539143
0.534216
0.529269
0.524304
0.519319
0.514316
0.509293
0.504251
0.49919
0.49411
0.48901
0.48389
0.478751
0.473592
0.468413
0.463215
0.457996
0.452757
0.447499
0.44222
0.43692
0.4316
0.42626
0.420899
0.415518
0.410116
0.404693
0.399249
0.393784
0.388298
0.382792
0.377263
0.371714
0.366143
0.360551
0.354937
0.349302
0.343644
0.337966
0.332265
0.326542
0.320797
0.31503
0.309241
0.30343
0.297596
0.29174
0.285861
0.279959
0.274035
0.268088
0.262118
0.256125
0.250109
0.24407
0.238008
0.231922
0.225813
0.21968
0.213524
0.207344
0.20114
0.194912
0.18866
0.182384
0.176084
0.16976
0.163411
0.157038
0.150641
0.144219
0.137772
0.1313
0.124803
0.118281
0.111734
0.105162
0.0985647
0.0919419
0.0852936
0.0786196
0.07192
0.0651945
0.0584432
0.0516658
0.0448624
0.0380327
0.0311767
0.0242944
0.0173855
0.01045
0.0034878
1.90062
1.90065
1.90062
1.90053
1.90038
1.90017
1.89989
1.89956
1.89916
1.8987
1.89818
1.8976
1.89696
1.89626
1.89549
1.89467
1.89378
1.89284
1.89183
1.89077
1.88965
1.88847
1.88723
1.88594
1.8846
1.8832
1.88175
1.88025
1.8787
1.87709
1.87545
1.87375
1.87202
1.87023
1.86841
1.86654
1.86464
1.8627
1.86072
1.85871
1.85666
1.85458
1.85247
1.85033
1.84816
1.84597
1.84375
1.84151
1.83924
1.83695
1.83464
1.83231
1.82997
1.82761
1.82523
1.82284
1.82044
1.81802
1.81559
1.81315
1.8107
1.80825
1.80578
1.80331
1.80084
1.79836
1.79587
1.79338
1.79089
1.7884
1.7859
1.78341
1.78091
1.77842
1.77592
1.77343
1.77094
1.76844
1.76596
1.76347
1.76099
1.75851
1.75604
1.75357
1.7511
1.74864
1.74619
1.74374
1.74129
1.73885
1.73642
1.73399
1.73157
1.72916
1.72675
1.72435
1.72195
1.71956
1.71718
1.7148
1.71243
1.71007
1.70771
1.70536
1.70301
1.70068
1.69835
1.69602
1.6937
1.69139
1.68909
1.68679
1.68449
1.68221
1.67993
1.67765
1.67538
1.67312
1.67086
1.66861
1.66636
1.66412
1.66188
1.65965
1.65743
1.65521
1.65299
1.65078
1.64857
1.64637
1.64417
1.64197
1.63978
1.6376
1.63541
1.63323
1.63106
1.62889
1.62672
1.62455
1.62239
1.62023
1.61807
1.61592
1.61377
1.61162
1.60947
1.60733
1.60519
1.60305
1.60091
1.59877
1.59664
1.5945
1.59237
1.59024
1.58811
1.58598
1.58386
1.58173
1.57961
1.57748
1.57536
1.57324
1.57112
1.569
1.56688
1.56476
1.56263
1.56051
1.5584
1.55628
1.55416
1.55204
1.54991
1.54779
1.54567
1.54355
1.54143
1.53931
1.53719
1.53506
1.53294
1.53081
1.52869
1.52656
1.52443
1.5223
1.52017
1.51804
1.51591
1.51378
1.51164
1.50951
1.50737
1.50523
1.50309
1.50095
1.4988
1.49666
1.49451
1.49236
1.49021
1.48806
1.48591
1.48375
1.48159
1.47943
1.47727
1.47511
1.47294
1.47077
1.4686
1.46643
1.46425
1.46208
1.4599
1.45771
1.45553
1.45334
1.45115
1.44896
1.44677
1.44457
1.44237
1.44017
1.43796
1.43575
1.43354
1.43133
1.42911
1.42689
1.42467
1.42244
1.42022
1.41798
1.41575
1.41351
1.41127
1.40903
1.40678
1.40453
1.40227
1.40002
1.39776
1.39549
1.39323
1.39095
1.38868
1.3864
1.38412
1.38183
1.37955
1.37725
1.37496
1.37266
1.37035
1.36804
1.36573
1.36342
1.3611
1.35877
1.35645
1.35412
1.35178
1.34944
1.3471
1.34475
1.3424
1.34004
1.33768
1.33531
1.33294
1.33057
1.32819
1.32581
1.32342
1.32103
1.31863
1.31623
1.31382
1.31141
1.30899
1.30657
1.30415
1.30172
1.29928
1.29684
1.29439
1.29194
1.28949
1.28703
1.28456
1.28209
1.27961
1.27713
1.27464
1.27215
1.26965
1.26715
1.26464
1.26212
1.2596
1.25708
1.25455
1.25201
1.24946
1.24691
1.24436
1.2418
1.23923
1.23666
1.23408
1.23149
1.2289
1.2263
1.2237
1.22109
1.21847
1.21585
1.21322
1.21058
1.20794
1.20529
1.20263
1.19997
1.1973
1.19462
1.19194
1.18925
1.18655
1.18385
1.18114
1.17842
1.17569
1.17296
1.17022
1.16747
1.16472
1.16196
1.15919
1.15641
1.15363
1.15083
1.14803
1.14522
1.14241
1.13959
1.13675
1.13391
1.13107
1.12821
1.12535
1.12248
1.11959
1.11671
1.11381
1.1109
1.10799
1.10507
1.10214
1.0992
1.09625
1.09329
1.09033
1.08735
1.08437
1.08138
1.07837
1.07536
1.07234
1.06931
1.06627
1.06323
1.06017
1.0571
1.05403
1.05094
1.04785
1.04474
1.04163
1.0385
1.03537
1.03222
1.02907
1.0259
1.02273
1.01954
1.01635
1.01314
1.00992
1.0067
1.00346
1.00021
0.996956
0.993687
0.990407
0.987117
0.983815
0.980503
0.97718
0.973845
0.9705
0.967143
0.963775
0.960396
0.957005
0.953603
0.950189
0.946764
0.943327
0.939878
0.936418
0.932946
0.929461
0.925965
0.922457
0.918937
0.915404
0.91186
0.908303
0.904733
0.901151
0.897557
0.89395
0.890331
0.886698
0.883053
0.879395
0.875725
0.872041
0.868344
0.864634
0.860911
0.857175
0.853426
0.849663
0.845886
0.842096
0.838293
0.834476
0.830645
0.8268
0.822942
0.81907
0.815183
0.811283
0.807369
0.80344
0.799497
0.79554
0.791568
0.787582
0.783582
0.779567
0.775537
0.771492
0.767433
0.763359
0.75927
0.755166
0.751046
0.746912
0.742762
0.738598
0.734418
0.730222
0.726011
0.721784
0.717542
0.713284
0.709011
0.704721
0.700416
0.696095
0.691758
0.687404
0.683035
0.678649
0.674247
0.669828
0.665393
0.660941
0.656473
0.651988
0.647487
0.642968
0.638433
0.633881
0.629311
0.624725
0.620121
0.6155
0.610861
0.606205
0.601532
0.596841
0.592132
0.587406
0.582661
0.577899
0.573118
0.56832
0.563503
0.558668
0.553815
0.548943
0.544052
0.539143
0.534216
0.529269
0.524304
0.519319
0.514316
0.509293
0.504251
0.49919
0.49411
0.48901
0.48389
0.478751
0.473592
0.468413
0.463215
0.457996
0.452757
0.447499
0.442219
0.43692
0.4316
0.42626
0.420899
0.415518
0.410116
0.404693
0.399249
0.393784
0.388298
0.382792
0.377263
0.371714
0.366143
0.360551
0.354937
0.349302
0.343644
0.337966
0.332265
0.326542
0.320797
0.31503
0.309241
0.30343
0.297596
0.29174
0.285861
0.279959
0.274035
0.268088
0.262118
0.256125
0.250109
0.24407
0.238008
0.231922
0.225813
0.21968
0.213524
0.207344
0.20114
0.194912
0.18866
0.182384
0.176084
0.16976
0.163411
0.157038
0.150641
0.144219
0.137772
0.1313
0.124803
0.118281
0.111734
0.105162
0.0985647
0.0919419
0.0852936
0.0786196
0.07192
0.0651945
0.0584432
0.0516658
0.0448624
0.0380327
0.0311767
0.0242944
0.0173855
0.01045
0.0034878
1.90223
1.90226
1.90223
1.90214
1.90198
1.90176
1.90147
1.90112
1.90071
1.90024
1.8997
1.89909
1.89842
1.89769
1.8969
1.89604
1.89512
1.89414
1.8931
1.892
1.89084
1.88962
1.88834
1.88701
1.88562
1.88418
1.88269
1.88114
1.87955
1.8779
1.87621
1.87447
1.87269
1.87086
1.86899
1.86709
1.86514
1.86316
1.86114
1.85908
1.857
1.85488
1.85273
1.85056
1.84835
1.84612
1.84387
1.8416
1.8393
1.83698
1.83465
1.83229
1.82992
1.82754
1.82513
1.82272
1.8203
1.81786
1.81541
1.81296
1.81049
1.80802
1.80554
1.80306
1.80057
1.79808
1.79558
1.79308
1.79058
1.78808
1.78558
1.78308
1.78058
1.77807
1.77557
1.77308
1.77058
1.76809
1.7656
1.76311
1.76063
1.75815
1.75567
1.7532
1.75074
1.74828
1.74582
1.74337
1.74093
1.73849
1.73606
1.73364
1.73122
1.72881
1.7264
1.724
1.72161
1.71922
1.71684
1.71447
1.7121
1.70974
1.70739
1.70504
1.7027
1.70037
1.69804
1.69572
1.69341
1.6911
1.6888
1.6865
1.68421
1.68193
1.67966
1.67738
1.67512
1.67286
1.67061
1.66836
1.66612
1.66388
1.66165
1.65942
1.6572
1.65498
1.65277
1.65056
1.64836
1.64616
1.64396
1.64177
1.63958
1.6374
1.63522
1.63305
1.63087
1.6287
1.62654
1.62438
1.62222
1.62006
1.61791
1.61576
1.61361
1.61146
1.60932
1.60718
1.60504
1.6029
1.60076
1.59863
1.5965
1.59437
1.59224
1.59011
1.58798
1.58586
1.58373
1.58161
1.57949
1.57737
1.57525
1.57313
1.57101
1.56889
1.56677
1.56465
1.56253
1.56041
1.55829
1.55618
1.55406
1.55194
1.54982
1.5477
1.54558
1.54346
1.54134
1.53922
1.5371
1.53498
1.53286
1.53073
1.52861
1.52648
1.52436
1.52223
1.5201
1.51797
1.51584
1.51371
1.51157
1.50944
1.5073
1.50516
1.50302
1.50088
1.49874
1.4966
1.49445
1.4923
1.49015
1.488
1.48585
1.48369
1.48154
1.47938
1.47722
1.47505
1.47289
1.47072
1.46855
1.46638
1.4642
1.46203
1.45985
1.45767
1.45548
1.4533
1.45111
1.44892
1.44672
1.44453
1.44233
1.44013
1.43792
1.43571
1.4335
1.43129
1.42907
1.42686
1.42463
1.42241
1.42018
1.41795
1.41572
1.41348
1.41124
1.40899
1.40675
1.4045
1.40224
1.39999
1.39773
1.39546
1.3932
1.39093
1.38865
1.38637
1.38409
1.38181
1.37952
1.37723
1.37493
1.37263
1.37033
1.36802
1.36571
1.36339
1.36107
1.35875
1.35642
1.35409
1.35176
1.34942
1.34707
1.34473
1.34237
1.34002
1.33766
1.33529
1.33292
1.33055
1.32817
1.32579
1.3234
1.32101
1.31861
1.31621
1.3138
1.31139
1.30898
1.30656
1.30413
1.3017
1.29926
1.29682
1.29438
1.29193
1.28947
1.28701
1.28455
1.28207
1.2796
1.27712
1.27463
1.27214
1.26964
1.26714
1.26463
1.26211
1.25959
1.25707
1.25453
1.252
1.24945
1.2469
1.24435
1.24179
1.23922
1.23665
1.23407
1.23148
1.22889
1.22629
1.22369
1.22108
1.21846
1.21584
1.21321
1.21057
1.20793
1.20528
1.20262
1.19996
1.19729
1.19462
1.19193
1.18924
1.18655
1.18384
1.18113
1.17841
1.17569
1.17295
1.17021
1.16747
1.16471
1.16195
1.15918
1.1564
1.15362
1.15083
1.14803
1.14522
1.1424
1.13958
1.13675
1.13391
1.13106
1.12821
1.12534
1.12247
1.11959
1.1167
1.1138
1.1109
1.10799
1.10506
1.10213
1.09919
1.09624
1.09329
1.09032
1.08735
1.08436
1.08137
1.07837
1.07536
1.07234
1.06931
1.06627
1.06322
1.06017
1.0571
1.05402
1.05094
1.04784
1.04474
1.04162
1.0385
1.03536
1.03222
1.02906
1.0259
1.02272
1.01954
1.01634
1.01314
1.00992
1.0067
1.00346
1.00021
0.996953
0.993684
0.990405
0.987114
0.983813
0.980501
0.977177
0.973843
0.970498
0.967141
0.963773
0.960394
0.957003
0.953601
0.950187
0.946762
0.943325
0.939877
0.936416
0.932944
0.92946
0.925964
0.922455
0.918935
0.915403
0.911858
0.908301
0.904732
0.90115
0.897556
0.893949
0.890329
0.886697
0.883052
0.879394
0.875723
0.87204
0.868343
0.864633
0.86091
0.857174
0.853424
0.849662
0.845885
0.842095
0.838292
0.834475
0.830644
0.8268
0.822941
0.819069
0.815183
0.811282
0.807368
0.803439
0.799496
0.795539
0.791568
0.787582
0.783581
0.779566
0.775536
0.771492
0.767432
0.763358
0.759269
0.755165
0.751046
0.746911
0.742762
0.738597
0.734417
0.730222
0.726011
0.721784
0.717542
0.713284
0.70901
0.704721
0.700416
0.696094
0.691757
0.687404
0.683034
0.678648
0.674246
0.669828
0.665393
0.660941
0.656473
0.651988
0.647486
0.642968
0.638433
0.63388
0.629311
0.624724
0.620121
0.6155
0.610861
0.606205
0.601532
0.596841
0.592132
0.587405
0.582661
0.577899
0.573118
0.56832
0.563503
0.558668
0.553815
0.548943
0.544052
0.539143
0.534216
0.529269
0.524304
0.519319
0.514316
0.509293
0.504251
0.49919
0.49411
0.48901
0.48389
0.478751
0.473592
0.468413
0.463215
0.457996
0.452757
0.447499
0.442219
0.43692
0.4316
0.42626
0.420899
0.415518
0.410116
0.404693
0.399249
0.393784
0.388298
0.382792
0.377263
0.371714
0.366143
0.360551
0.354937
0.349302
0.343644
0.337966
0.332265
0.326542
0.320797
0.31503
0.309241
0.30343
0.297596
0.29174
0.285861
0.279959
0.274035
0.268088
0.262118
0.256125
0.250109
0.24407
0.238008
0.231922
0.225813
0.21968
0.213524
0.207344
0.20114
0.194912
0.18866
0.182384
0.176084
0.16976
0.163411
0.157038
0.150641
0.144219
0.137772
0.1313
0.124803
0.118281
0.111734
0.105162
0.0985647
0.0919419
0.0852936
0.0786196
0.07192
0.0651945
0.0584432
0.0516658
0.0448624
0.0380327
0.0311767
0.0242944
0.0173855
0.01045
0.0034878
1.90454
1.90457
1.90455
1.90444
1.90428
1.90404
1.90374
1.90337
1.90293
1.90243
1.90186
1.90122
1.90052
1.89975
1.89891
1.89801
1.89704
1.89601
1.89491
1.89375
1.89254
1.89126
1.88992
1.88853
1.88708
1.88557
1.88401
1.8824
1.88074
1.87903
1.87727
1.87547
1.87363
1.87174
1.86981
1.86784
1.86583
1.86378
1.86171
1.8596
1.85745
1.85528
1.85308
1.85085
1.8486
1.84633
1.84403
1.84171
1.83937
1.83701
1.83463
1.83224
1.82983
1.82741
1.82498
1.82254
1.82008
1.81762
1.81515
1.81267
1.81018
1.80769
1.80519
1.80269
1.80018
1.79767
1.79516
1.79265
1.79014
1.78762
1.78511
1.7826
1.78009
1.77758
1.77507
1.77257
1.77007
1.76757
1.76508
1.76259
1.76011
1.75763
1.75515
1.75268
1.75022
1.74776
1.7453
1.74286
1.74042
1.73798
1.73555
1.73313
1.73072
1.72831
1.7259
1.72351
1.72112
1.71874
1.71636
1.714
1.71164
1.70928
1.70693
1.70459
1.70226
1.69993
1.69761
1.6953
1.69299
1.69069
1.68839
1.6861
1.68382
1.68154
1.67927
1.67701
1.67475
1.6725
1.67025
1.66801
1.66577
1.66354
1.66131
1.65909
1.65687
1.65466
1.65245
1.65025
1.64805
1.64586
1.64367
1.64148
1.6393
1.63713
1.63495
1.63278
1.63061
1.62845
1.62629
1.62413
1.62198
1.61982
1.61767
1.61553
1.61338
1.61124
1.6091
1.60696
1.60483
1.60269
1.60056
1.59843
1.5963
1.59418
1.59205
1.58993
1.5878
1.58568
1.58356
1.58144
1.57932
1.5772
1.57508
1.57297
1.57085
1.56873
1.56662
1.5645
1.56239
1.56027
1.55816
1.55604
1.55392
1.55181
1.54969
1.54757
1.54546
1.54334
1.54122
1.5391
1.53698
1.53486
1.53274
1.53062
1.5285
1.52637
1.52425
1.52212
1.52
1.51787
1.51574
1.51361
1.51148
1.50934
1.50721
1.50507
1.50293
1.5008
1.49865
1.49651
1.49437
1.49222
1.49007
1.48792
1.48577
1.48362
1.48146
1.4793
1.47714
1.47498
1.47282
1.47065
1.46848
1.46631
1.46414
1.46196
1.45978
1.4576
1.45542
1.45324
1.45105
1.44886
1.44666
1.44447
1.44227
1.44007
1.43787
1.43566
1.43345
1.43124
1.42902
1.4268
1.42458
1.42236
1.42013
1.4179
1.41567
1.41343
1.41119
1.40895
1.4067
1.40445
1.4022
1.39994
1.39768
1.39542
1.39316
1.39089
1.38861
1.38633
1.38405
1.38177
1.37948
1.37719
1.3749
1.3726
1.37029
1.36799
1.36568
1.36336
1.36104
1.35872
1.35639
1.35406
1.35173
1.34939
1.34704
1.3447
1.34235
1.33999
1.33763
1.33526
1.3329
1.33052
1.32814
1.32576
1.32337
1.32098
1.31859
1.31618
1.31378
1.31137
1.30895
1.30653
1.30411
1.30168
1.29924
1.2968
1.29436
1.29191
1.28945
1.28699
1.28453
1.28206
1.27958
1.2771
1.27461
1.27212
1.26962
1.26712
1.26461
1.26209
1.25957
1.25705
1.25452
1.25198
1.24944
1.24689
1.24433
1.24177
1.23921
1.23663
1.23405
1.23147
1.22888
1.22628
1.22368
1.22107
1.21845
1.21583
1.2132
1.21056
1.20792
1.20527
1.20261
1.19995
1.19728
1.19461
1.19192
1.18923
1.18654
1.18383
1.18112
1.1784
1.17568
1.17294
1.1702
1.16746
1.1647
1.16194
1.15917
1.15639
1.15361
1.15082
1.14802
1.14521
1.14239
1.13957
1.13674
1.1339
1.13105
1.1282
1.12533
1.12246
1.11958
1.11669
1.1138
1.11089
1.10798
1.10506
1.10213
1.09919
1.09624
1.09328
1.09032
1.08734
1.08436
1.08137
1.07836
1.07535
1.07233
1.0693
1.06627
1.06322
1.06016
1.05709
1.05402
1.05093
1.04784
1.04473
1.04162
1.03849
1.03536
1.03221
1.02906
1.02589
1.02272
1.01953
1.01634
1.01313
1.00992
1.00669
1.00346
1.00021
0.99695
0.993681
0.990401
0.987111
0.98381
0.980498
0.977174
0.97384
0.970495
0.967138
0.96377
0.960391
0.957
0.953598
0.950185
0.94676
0.943323
0.939874
0.936414
0.932942
0.929458
0.925961
0.922453
0.918933
0.915401
0.911856
0.908299
0.90473
0.901148
0.897554
0.893947
0.890327
0.886695
0.88305
0.879393
0.875722
0.872038
0.868342
0.864632
0.860909
0.857173
0.853423
0.84966
0.845884
0.842094
0.838291
0.834474
0.830643
0.826798
0.82294
0.819068
0.815182
0.811281
0.807367
0.803438
0.799495
0.795538
0.791567
0.787581
0.78358
0.779565
0.775535
0.771491
0.767431
0.763357
0.759268
0.755164
0.751045
0.746911
0.742761
0.738596
0.734416
0.730221
0.72601
0.721783
0.717541
0.713283
0.70901
0.70472
0.700415
0.696094
0.691757
0.687403
0.683034
0.678648
0.674246
0.669827
0.665392
0.660941
0.656472
0.651988
0.647486
0.642968
0.638432
0.63388
0.629311
0.624724
0.62012
0.615499
0.610861
0.606205
0.601532
0.59684
0.592132
0.587405
0.582661
0.577898
0.573118
0.56832
0.563503
0.558668
0.553814
0.548943
0.544052
0.539143
0.534215
0.529269
0.524304
0.519319
0.514316
0.509293
0.504251
0.49919
0.49411
0.48901
0.48389
0.478751
0.473592
0.468413
0.463215
0.457996
0.452757
0.447499
0.442219
0.43692
0.4316
0.42626
0.420899
0.415518
0.410116
0.404693
0.399249
0.393784
0.388298
0.382792
0.377263
0.371714
0.366143
0.360551
0.354937
0.349302
0.343644
0.337966
0.332265
0.326542
0.320797
0.31503
0.309241
0.30343
0.297596
0.29174
0.285861
0.279959
0.274035
0.268088
0.262118
0.256125
0.250109
0.24407
0.238008
0.231922
0.225813
0.21968
0.213524
0.207344
0.20114
0.194912
0.18866
0.182384
0.176084
0.16976
0.163411
0.157038
0.150641
0.144219
0.137772
0.1313
0.124803
0.118281
0.111734
0.105162
0.0985647
0.0919419
0.0852936
0.0786196
0.07192
0.0651945
0.0584432
0.0516658
0.0448624
0.0380327
0.0311767
0.0242944
0.0173855
0.01045
0.0034878
1.9075
1.90754
1.90751
1.9074
1.90722
1.90697
1.90664
1.90625
1.90578
1.90524
1.90463
1.90394
1.90319
1.90236
1.90147
1.90051
1.89947
1.89837
1.89721
1.89598
1.89469
1.89333
1.89191
1.89044
1.88891
1.88732
1.88568
1.88398
1.88224
1.88044
1.8786
1.87672
1.87479
1.87281
1.8708
1.86875
1.86667
1.86455
1.8624
1.86021
1.858
1.85576
1.85349
1.8512
1.84888
1.84655
1.84419
1.84181
1.83942
1.83701
1.83459
1.83215
1.8297
1.82723
1.82476
1.82228
1.81979
1.81729
1.81479
1.81228
1.80976
1.80724
1.80472
1.8022
1.79967
1.79714
1.79461
1.79209
1.78956
1.78703
1.78451
1.78198
1.77946
1.77695
1.77443
1.77192
1.76942
1.76692
1.76442
1.76193
1.75944
1.75696
1.75449
1.75202
1.74955
1.7471
1.74464
1.7422
1.73976
1.73733
1.73491
1.73249
1.73008
1.72768
1.72528
1.72289
1.72051
1.71813
1.71576
1.7134
1.71105
1.7087
1.70636
1.70403
1.7017
1.69938
1.69707
1.69476
1.69246
1.69017
1.68788
1.6856
1.68332
1.68106
1.67879
1.67654
1.67428
1.67204
1.6698
1.66756
1.66534
1.66311
1.66089
1.65868
1.65647
1.65426
1.65206
1.64987
1.64768
1.64549
1.64331
1.64113
1.63895
1.63678
1.63461
1.63245
1.63029
1.62813
1.62598
1.62382
1.62167
1.61953
1.61738
1.61524
1.6131
1.61097
1.60883
1.6067
1.60457
1.60244
1.60031
1.59819
1.59606
1.59394
1.59182
1.5897
1.58758
1.58546
1.58335
1.58123
1.57912
1.577
1.57489
1.57277
1.57066
1.56855
1.56643
1.56432
1.56221
1.5601
1.55798
1.55587
1.55376
1.55165
1.54953
1.54742
1.5453
1.54319
1.54107
1.53896
1.53684
1.53472
1.5326
1.53049
1.52837
1.52624
1.52412
1.522
1.51987
1.51775
1.51562
1.51349
1.51136
1.50923
1.5071
1.50496
1.50283
1.50069
1.49855
1.49641
1.49427
1.49212
1.48997
1.48783
1.48568
1.48352
1.48137
1.47921
1.47705
1.47489
1.47273
1.47057
1.4684
1.46623
1.46406
1.46188
1.45971
1.45753
1.45535
1.45316
1.45098
1.44879
1.44659
1.4444
1.4422
1.44
1.4378
1.43559
1.43339
1.43117
1.42896
1.42674
1.42452
1.4223
1.42007
1.41784
1.41561
1.41338
1.41114
1.40889
1.40665
1.4044
1.40215
1.39989
1.39763
1.39537
1.39311
1.39084
1.38857
1.38629
1.38401
1.38173
1.37944
1.37715
1.37485
1.37255
1.37025
1.36795
1.36563
1.36332
1.361
1.35868
1.35635
1.35402
1.35169
1.34935
1.34701
1.34466
1.34231
1.33996
1.3376
1.33523
1.33286
1.33049
1.32811
1.32573
1.32334
1.32095
1.31856
1.31616
1.31375
1.31134
1.30893
1.30651
1.30408
1.30165
1.29922
1.29678
1.29433
1.29188
1.28943
1.28697
1.2845
1.28203
1.27956
1.27708
1.27459
1.2721
1.2696
1.2671
1.26459
1.26207
1.25955
1.25703
1.2545
1.25196
1.24942
1.24687
1.24431
1.24175
1.23919
1.23661
1.23404
1.23145
1.22886
1.22626
1.22366
1.22105
1.21843
1.21581
1.21318
1.21055
1.2079
1.20525
1.2026
1.19994
1.19727
1.19459
1.19191
1.18922
1.18652
1.18382
1.18111
1.17839
1.17566
1.17293
1.17019
1.16745
1.16469
1.16193
1.15916
1.15638
1.1536
1.15081
1.14801
1.1452
1.14238
1.13956
1.13673
1.13389
1.13104
1.12819
1.12533
1.12245
1.11957
1.11669
1.11379
1.11088
1.10797
1.10505
1.10212
1.09918
1.09623
1.09327
1.09031
1.08733
1.08435
1.08136
1.07836
1.07535
1.07233
1.0693
1.06626
1.06321
1.06016
1.05709
1.05401
1.05093
1.04783
1.04473
1.04161
1.03849
1.03535
1.03221
1.02905
1.02589
1.02272
1.01953
1.01634
1.01313
1.00991
1.00669
1.00345
1.0002
0.996946
0.993677
0.990397
0.987107
0.983806
0.980494
0.977171
0.973837
0.970491
0.967135
0.963767
0.960388
0.956997
0.953595
0.950182
0.946757
0.94332
0.939871
0.936411
0.932939
0.929455
0.925959
0.922451
0.918931
0.915398
0.911854
0.908297
0.904728
0.901146
0.897552
0.893945
0.890325
0.886693
0.883048
0.879391
0.87572
0.872036
0.86834
0.86463
0.860907
0.857171
0.853421
0.849659
0.845882
0.842093
0.838289
0.834472
0.830641
0.826797
0.822939
0.819066
0.81518
0.81128
0.807366
0.803437
0.799494
0.795537
0.791566
0.78758
0.783579
0.779564
0.775534
0.77149
0.76743
0.763356
0.759267
0.755163
0.751044
0.74691
0.74276
0.738596
0.734416
0.73022
0.726009
0.721783
0.71754
0.713283
0.709009
0.70472
0.700414
0.696093
0.691756
0.687402
0.683033
0.678647
0.674245
0.669826
0.665392
0.66094
0.656472
0.651987
0.647486
0.642967
0.638432
0.633879
0.62931
0.624724
0.62012
0.615499
0.61086
0.606205
0.601531
0.59684
0.592131
0.587405
0.58266
0.577898
0.573118
0.568319
0.563503
0.558668
0.553814
0.548942
0.544052
0.539143
0.534215
0.529269
0.524303
0.519319
0.514316
0.509293
0.504251
0.49919
0.49411
0.48901
0.48389
0.478751
0.473592
0.468413
0.463215
0.457996
0.452757
0.447499
0.442219
0.43692
0.4316
0.42626
0.420899
0.415518
0.410116
0.404693
0.399249
0.393784
0.388298
0.382792
0.377263
0.371714
0.366143
0.360551
0.354937
0.349302
0.343644
0.337966
0.332265
0.326542
0.320797
0.31503
0.309241
0.30343
0.297596
0.29174
0.285861
0.279959
0.274035
0.268088
0.262118
0.256125
0.250109
0.24407
0.238008
0.231922
0.225813
0.21968
0.213524
0.207344
0.20114
0.194912
0.18866
0.182384
0.176084
0.16976
0.163411
0.157038
0.150641
0.144219
0.137772
0.1313
0.124803
0.118281
0.111734
0.105162
0.0985647
0.0919419
0.0852936
0.0786196
0.07192
0.0651945
0.0584432
0.0516658
0.0448624
0.0380327
0.0311767
0.0242944
0.0173855
0.01045
0.0034878
1.91108
1.91112
1.91109
1.91097
1.91078
1.9105
1.91015
1.90972
1.90921
1.90862
1.90796
1.90722
1.9064
1.90551
1.90454
1.9035
1.90239
1.9012
1.89995
1.89863
1.89724
1.89579
1.89427
1.8927
1.89107
1.88937
1.88763
1.88583
1.88398
1.88209
1.88014
1.87815
1.87612
1.87405
1.87195
1.8698
1.86762
1.86541
1.86317
1.8609
1.8586
1.85628
1.85393
1.85156
1.84917
1.84676
1.84434
1.8419
1.83944
1.83697
1.83449
1.832
1.82949
1.82698
1.82446
1.82194
1.8194
1.81687
1.81433
1.81178
1.80924
1.80669
1.80414
1.80159
1.79904
1.79649
1.79394
1.79139
1.78885
1.78631
1.78377
1.78124
1.77871
1.77618
1.77366
1.77114
1.76863
1.76613
1.76363
1.76113
1.75865
1.75616
1.75369
1.75122
1.74876
1.7463
1.74386
1.74142
1.73898
1.73656
1.73414
1.73173
1.72932
1.72693
1.72454
1.72216
1.71978
1.71741
1.71505
1.7127
1.71035
1.70802
1.70568
1.70336
1.70104
1.69873
1.69643
1.69413
1.69184
1.68956
1.68728
1.68501
1.68274
1.68048
1.67823
1.67598
1.67374
1.6715
1.66927
1.66705
1.66483
1.66261
1.6604
1.6582
1.656
1.6538
1.65161
1.64942
1.64724
1.64506
1.64289
1.64072
1.63855
1.63638
1.63422
1.63207
1.62991
1.62776
1.62561
1.62347
1.62133
1.61919
1.61705
1.61492
1.61278
1.61065
1.60852
1.6064
1.60427
1.60215
1.60003
1.59791
1.59579
1.59367
1.59156
1.58944
1.58733
1.58521
1.5831
1.58099
1.57888
1.57677
1.57466
1.57255
1.57044
1.56833
1.56622
1.56412
1.56201
1.5599
1.55779
1.55568
1.55357
1.55146
1.54935
1.54724
1.54513
1.54302
1.54091
1.53879
1.53668
1.53456
1.53245
1.53033
1.52821
1.5261
1.52398
1.52186
1.51973
1.51761
1.51548
1.51336
1.51123
1.5091
1.50697
1.50484
1.5027
1.50057
1.49843
1.49629
1.49415
1.49201
1.48986
1.48772
1.48557
1.48342
1.48127
1.47911
1.47696
1.4748
1.47264
1.47047
1.46831
1.46614
1.46397
1.46179
1.45962
1.45744
1.45526
1.45308
1.45089
1.44871
1.44652
1.44432
1.44213
1.43993
1.43773
1.43552
1.43331
1.4311
1.42889
1.42667
1.42446
1.42223
1.42001
1.41778
1.41555
1.41331
1.41108
1.40883
1.40659
1.40434
1.40209
1.39984
1.39758
1.39532
1.39305
1.39078
1.38851
1.38624
1.38396
1.38168
1.37939
1.3771
1.3748
1.37251
1.37021
1.3679
1.36559
1.36328
1.36096
1.35864
1.35631
1.35398
1.35165
1.34931
1.34697
1.34462
1.34227
1.33992
1.33756
1.3352
1.33283
1.33045
1.32808
1.3257
1.32331
1.32092
1.31852
1.31612
1.31372
1.31131
1.30889
1.30648
1.30405
1.30162
1.29919
1.29675
1.2943
1.29186
1.2894
1.28694
1.28448
1.28201
1.27953
1.27705
1.27456
1.27207
1.26958
1.26707
1.26456
1.26205
1.25953
1.25701
1.25448
1.25194
1.2494
1.24685
1.24429
1.24173
1.23917
1.2366
1.23402
1.23143
1.22884
1.22624
1.22364
1.22103
1.21842
1.21579
1.21316
1.21053
1.20789
1.20524
1.20258
1.19992
1.19725
1.19458
1.19189
1.1892
1.18651
1.1838
1.18109
1.17838
1.17565
1.17292
1.17018
1.16743
1.16468
1.16192
1.15915
1.15637
1.15359
1.1508
1.148
1.14519
1.14237
1.13955
1.13672
1.13388
1.13103
1.12818
1.12532
1.12244
1.11956
1.11668
1.11378
1.11088
1.10796
1.10504
1.10211
1.09917
1.09622
1.09327
1.0903
1.08733
1.08434
1.08135
1.07835
1.07534
1.07232
1.06929
1.06625
1.06321
1.06015
1.05708
1.05401
1.05092
1.04783
1.04472
1.04161
1.03848
1.03535
1.0322
1.02905
1.02588
1.02271
1.01953
1.01633
1.01312
1.00991
1.00668
1.00345
1.0002
0.996941
0.993673
0.990393
0.987103
0.983802
0.98049
0.977167
0.973833
0.970488
0.967131
0.963763
0.960384
0.956994
0.953592
0.950178
0.946753
0.943317
0.939868
0.936408
0.932936
0.929452
0.925956
0.922448
0.918928
0.915396
0.911851
0.908294
0.904725
0.901143
0.897549
0.893942
0.890323
0.886691
0.883046
0.879388
0.875718
0.872034
0.868338
0.864628
0.860905
0.857169
0.85342
0.849657
0.845881
0.842091
0.838287
0.834471
0.83064
0.826795
0.822937
0.819065
0.815179
0.811279
0.807364
0.803436
0.799493
0.795536
0.791564
0.787578
0.783578
0.779563
0.775533
0.771489
0.767429
0.763355
0.759266
0.755162
0.751043
0.746909
0.742759
0.738595
0.734415
0.730219
0.726008
0.721782
0.71754
0.713282
0.709008
0.704719
0.700414
0.696092
0.691755
0.687402
0.683032
0.678646
0.674244
0.669826
0.665391
0.660939
0.656471
0.651986
0.647485
0.642967
0.638431
0.633879
0.62931
0.624723
0.620119
0.615498
0.61086
0.606204
0.601531
0.59684
0.592131
0.587405
0.58266
0.577898
0.573117
0.568319
0.563502
0.558667
0.553814
0.548942
0.544052
0.539143
0.534215
0.529269
0.524303
0.519319
0.514315
0.509293
0.504251
0.49919
0.49411
0.48901
0.48389
0.478751
0.473592
0.468413
0.463215
0.457996
0.452757
0.447498
0.442219
0.43692
0.4316
0.42626
0.420899
0.415518
0.410116
0.404693
0.399249
0.393784
0.388298
0.382792
0.377263
0.371714
0.366143
0.360551
0.354937
0.349302
0.343644
0.337966
0.332265
0.326542
0.320797
0.31503
0.309241
0.30343
0.297596
0.29174
0.285861
0.279959
0.274035
0.268088
0.262118
0.256125
0.250109
0.24407
0.238008
0.231922