/*--------------------------------*- C++ -*----------------------------------*\
  =========                 |
  \\      /  F ield         | OpenFOAM: The Open Source CFD Toolbox
   \\    /   O peration     | Website:  https://openfoam.org
    \\  /    A nd           | Version:  7
     \\/     M anipulation  |
\*---------------------------------------------------------------------------*/
FoamFile
{
    version     2.0;
    format      ascii;
    class       surfaceScalarField;
    location    "9";
    object      phi;
}
// * * * * * * * * * * * * * * * * * * * * * * * * * * * * * * * * * * * * * //

dimensions      [0 3 -1 0 0 0 0];

internalField   nonuniform List<scalar> 
95320
(
0.00250152
-7.10056e-08
-1.78005e-13
0.00250174
-2.14567e-07
-4.27414e-13
0.0025021
-3.59899e-07
-3.806e-13
0.0025026
-5.06712e-07
-2.35999e-13
0.00250326
-6.548e-07
-1.54945e-13
0.00250406
-8.03959e-07
-1.0483e-13
0.00250502
-9.53975e-07
-7.0135e-14
0.00250612
-1.10463e-06
-4.07218e-14
0.00250738
-1.2557e-06
-1.59851e-14
0.00250878
-1.40697e-06
3.5423e-15
0.00251034
-1.55821e-06
2.07557e-14
0.00251205
-1.70919e-06
3.43272e-14
0.00251391
-1.85969e-06
4.33968e-14
0.00251592
-2.00949e-06
4.75554e-14
0.00251808
-2.15836e-06
4.89378e-14
0.00252038
-2.30608e-06
4.55467e-14
0.00252284
-2.45244e-06
3.91159e-14
0.00252543
-2.59724e-06
3.15595e-14
0.00252817
-2.74027e-06
2.14328e-14
0.00253106
-2.88134e-06
1.01295e-14
0.00253408
-3.02026e-06
-1.6891e-15
0.00253723
-3.15685e-06
-1.20538e-14
0.00254052
-3.29095e-06
-2.01182e-14
0.00254395
-3.42238e-06
-2.85458e-14
0.0025475
-3.55102e-06
-3.55656e-14
0.00255117
-3.67671e-06
-4.02328e-14
0.00255497
-3.79933e-06
-4.42798e-14
0.00255889
-3.91876e-06
-4.74037e-14
0.00256293
-4.0349e-06
-4.96762e-14
0.00256707
-4.14765e-06
-5.16444e-14
0.00257133
-4.25694e-06
-5.26173e-14
0.00257569
-4.36269e-06
-5.2068e-14
0.00258016
-4.46484e-06
-5.28523e-14
0.00258472
-4.56335e-06
-5.41478e-14
0.00258938
-4.65818e-06
-5.52836e-14
0.00259413
-4.7493e-06
-5.78963e-14
0.00259897
-4.83669e-06
-5.97366e-14
0.00260389
-4.92036e-06
-5.94989e-14
0.00260889
-5.0003e-06
-5.92643e-14
0.00261396
-5.07653e-06
-5.8926e-14
0.00261911
-5.14906e-06
-5.63461e-14
0.00262433
-5.21793e-06
-5.44523e-14
0.00262961
-5.28318e-06
-5.40972e-14
0.00263496
-5.34485e-06
-5.27165e-14
0.00264036
-5.40298e-06
-5.12531e-14
0.00264582
-5.45765e-06
-5.17367e-14
0.00265133
-5.5089e-06
-5.21933e-14
0.00265688
-5.55681e-06
-5.17272e-14
0.00266249
-5.60145e-06
-5.25693e-14
0.00266813
-5.64289e-06
-5.51366e-14
0.00267381
-5.68122e-06
-5.76001e-14
0.00267953
-5.71651e-06
-6.01555e-14
0.00268528
-5.74886e-06
-6.48313e-14
0.00269105
-5.77834e-06
-7.17608e-14
0.00269686
-5.80506e-06
-7.90349e-14
0.00270269
-5.82909e-06
-8.61624e-14
0.00270854
-5.85054e-06
-9.44422e-14
0.00271441
-5.86949e-06
-1.04154e-13
0.00272029
-5.88603e-06
-1.16064e-13
0.00272619
-5.90026e-06
-1.29e-13
0.00273211
-5.91228e-06
-1.4296e-13
0.00273803
-5.92216e-06
-1.57456e-13
0.00274396
-5.93e-06
-1.7232e-13
0.00274989
-5.9359e-06
-1.87693e-13
0.00275583
-5.93993e-06
-2.02596e-13
0.00276178
-5.94219e-06
-2.15427e-13
0.00276772
-5.94277e-06
-2.2627e-13
0.00277366
-5.94173e-06
-2.36707e-13
0.0027796
-5.93918e-06
-2.47483e-13
0.00278554
-5.93518e-06
-2.5834e-13
0.00279147
-5.92982e-06
-2.69492e-13
0.00279739
-5.92316e-06
-2.815e-13
0.0028033
-5.91529e-06
-2.94064e-13
0.00280921
-5.90628e-06
-3.06085e-13
0.00281511
-5.89619e-06
-3.16815e-13
0.00282099
-5.88508e-06
-3.26455e-13
0.00282686
-5.87304e-06
-3.35694e-13
0.00283272
-5.8601e-06
-3.44841e-13
0.00283857
-5.84634e-06
-3.53415e-13
0.0028444
-5.83182e-06
-3.60709e-13
0.00285022
-5.81658e-06
-3.6666e-13
0.00285602
-5.80068e-06
-3.71857e-13
0.0028618
-5.78416e-06
-3.76763e-13
0.00286757
-5.76709e-06
-3.81197e-13
0.00287332
-5.74949e-06
-3.84629e-13
0.00287905
-5.73143e-06
-3.86705e-13
0.00288477
-5.71292e-06
-3.87115e-13
0.00289046
-5.69403e-06
-3.85186e-13
0.00289613
-5.67478e-06
-3.80117e-13
0.00290179
-5.6552e-06
-3.71556e-13
0.00290742
-5.63534e-06
-3.5956e-13
0.00291304
-5.61521e-06
-3.44194e-13
0.00291863
-5.59486e-06
-3.2558e-13
0.00292421
-5.57431e-06
-3.04206e-13
0.00292976
-5.55359e-06
-2.80731e-13
0.0029353
-5.53271e-06
-2.55309e-13
0.00294081
-5.5117e-06
-2.27394e-13
0.0029463
-5.49059e-06
-1.96665e-13
0.00295177
-5.46939e-06
-1.63903e-13
0.00295721
-5.44812e-06
-1.30415e-13
0.00296264
-5.4268e-06
-9.67874e-14
0.00296805
-5.40544e-06
-6.27429e-14
0.00297343
-5.38406e-06
-2.84791e-14
0.00297879
-5.36267e-06
4.84955e-15
0.00298414
-5.34128e-06
3.71766e-14
0.00298946
-5.3199e-06
6.8656e-14
0.00299475
-5.29854e-06
9.91518e-14
0.00300003
-5.27722e-06
1.28298e-13
0.00300529
-5.25593e-06
1.56533e-13
0.00301052
-5.2347e-06
1.85552e-13
0.00301574
-5.21351e-06
2.17086e-13
0.00302093
-5.19238e-06
2.51732e-13
0.0030261
-5.17131e-06
2.89003e-13
0.00303125
-5.15031e-06
3.27711e-13
0.00303638
-5.12937e-06
3.66782e-13
0.00304149
-5.10851e-06
4.05585e-13
0.00304657
-5.08772e-06
4.43488e-13
0.00305164
-5.067e-06
4.80177e-13
0.00305669
-5.04636e-06
5.15832e-13
0.00306171
-5.0258e-06
5.51081e-13
0.00306672
-5.00531e-06
5.86791e-13
0.0030717
-4.98489e-06
6.23447e-13
0.00307667
-4.96455e-06
6.60563e-13
0.00308161
-4.94428e-06
6.97022e-13
0.00308654
-4.92409e-06
7.31863e-13
0.00309144
-4.90397e-06
7.64732e-13
0.00309632
-4.88391e-06
7.95618e-13
0.00310119
-4.86392e-06
8.24842e-13
0.00310603
-4.84399e-06
8.53155e-13
0.00311086
-4.82413e-06
8.81062e-13
0.00311566
-4.80432e-06
9.07972e-13
0.00312045
-4.78456e-06
9.33023e-13
0.00312521
-4.76486e-06
9.55535e-13
0.00312996
-4.74521e-06
9.74429e-13
0.00313468
-4.7256e-06
9.89106e-13
0.00313939
-4.70604e-06
1.00029e-12
0.00314407
-4.68652e-06
1.00928e-12
0.00314874
-4.66703e-06
1.01748e-12
0.00315339
-4.64757e-06
1.0262e-12
0.00315802
-4.62815e-06
1.03542e-12
0.00316263
-4.60874e-06
1.04384e-12
0.00316721
-4.58937e-06
1.05066e-12
0.00317178
-4.57001e-06
1.05629e-12
0.00317634
-4.55066e-06
1.06127e-12
0.00318087
-4.53133e-06
1.0645e-12
0.00318538
-4.51201e-06
1.06409e-12
0.00318987
-4.4927e-06
1.05849e-12
0.00319434
-4.47339e-06
1.04683e-12
0.0031988
-4.45408e-06
1.02962e-12
0.00320323
-4.43476e-06
1.00818e-12
0.00320765
-4.41545e-06
9.84245e-13
0.00321205
-4.39612e-06
9.59697e-13
0.00321642
-4.37679e-06
9.35562e-13
0.00322078
-4.35744e-06
9.12955e-13
0.00322512
-4.33807e-06
8.92492e-13
0.00322944
-4.31869e-06
8.741e-13
0.00323374
-4.29929e-06
8.58201e-13
0.00323802
-4.27987e-06
8.44122e-13
0.00324228
-4.26043e-06
8.30347e-13
0.00324652
-4.24096e-06
8.16413e-13
0.00325074
-4.22146e-06
8.02017e-13
0.00325494
-4.20194e-06
7.85616e-13
0.00325912
-4.18238e-06
7.67279e-13
0.00326329
-4.1628e-06
7.48536e-13
0.00326743
-4.14318e-06
7.30182e-13
0.00327155
-4.12353e-06
7.12213e-13
0.00327566
-4.10384e-06
6.94547e-13
0.00327974
-4.08412e-06
6.75697e-13
0.0032838
-4.06437e-06
6.54122e-13
0.00328785
-4.04457e-06
6.30834e-13
0.00329187
-4.02474e-06
6.08394e-13
0.00329588
-4.00488e-06
5.88232e-13
0.00329986
-3.98497e-06
5.69647e-13
0.00330383
-3.96503e-06
5.54446e-13
0.00330777
-3.94505e-06
5.4533e-13
0.0033117
-3.92503e-06
5.42379e-13
0.0033156
-3.90498e-06
5.44615e-13
0.00331949
-3.88488e-06
5.50263e-13
0.00332335
-3.86475e-06
5.5729e-13
0.0033272
-3.84459e-06
5.64212e-13
0.00333102
-3.82438e-06
5.71088e-13
0.00333483
-3.80414e-06
5.78612e-13
0.00333861
-3.78387e-06
5.85138e-13
0.00334237
-3.76355e-06
5.89335e-13
0.00334612
-3.74321e-06
5.90976e-13
0.00334984
-3.72283e-06
5.91241e-13
0.00335354
-3.70242e-06
5.925e-13
0.00335722
-3.68198e-06
5.95578e-13
0.00336089
-3.66151e-06
6.0074e-13
0.00336453
-3.641e-06
6.0764e-13
0.00336815
-3.62047e-06
6.14271e-13
0.00337175
-3.59992e-06
6.19204e-13
0.00337533
-3.57933e-06
6.23185e-13
0.00337889
-3.55872e-06
6.28061e-13
0.00338242
-3.53809e-06
6.3565e-13
0.00338594
-3.51744e-06
6.48302e-13
0.00338944
-3.49676e-06
6.65285e-13
0.00339291
-3.47607e-06
6.83246e-13
0.00339637
-3.45535e-06
6.97238e-13
0.0033998
-3.43462e-06
7.01226e-13
0.00340322
-3.41388e-06
6.94449e-13
0.00340661
-3.39312e-06
6.78801e-13
0.00340998
-3.37235e-06
6.58889e-13
0.00341333
-3.35157e-06
6.42278e-13
0.00341667
-3.33078e-06
6.30814e-13
0.00341998
-3.30998e-06
6.23362e-13
0.00342326
-3.28918e-06
6.17214e-13
0.00342653
-3.26837e-06
6.07071e-13
0.00342978
-3.24756e-06
5.92044e-13
0.00343301
-3.22675e-06
5.72294e-13
0.00343621
-3.20594e-06
5.50648e-13
0.0034394
-3.18513e-06
5.34559e-13
0.00344256
-3.16432e-06
5.24999e-13
0.00344571
-3.14352e-06
5.18457e-13
0.00344883
-3.12273e-06
5.14494e-13
0.00345193
-3.10194e-06
5.1298e-13
0.00345501
-3.08117e-06
5.13414e-13
0.00345807
-3.0604e-06
5.17675e-13
0.00346111
-3.03965e-06
5.25286e-13
0.00346413
-3.01892e-06
5.3486e-13
0.00346713
-2.9982e-06
5.46902e-13
0.00347011
-2.9775e-06
5.54577e-13
0.00347306
-2.95682e-06
5.53682e-13
0.003476
-2.93616e-06
5.50275e-13
0.00347891
-2.91552e-06
5.33034e-13
0.00348181
-2.89491e-06
5.01513e-13
0.00348468
-2.87432e-06
4.61792e-13
0.00348754
-2.85376e-06
4.27757e-13
0.00349037
-2.83323e-06
4.02539e-13
0.00349318
-2.81273e-06
3.82774e-13
0.00349598
-2.79226e-06
3.72943e-13
0.00349875
-2.77182e-06
3.63885e-13
0.0035015
-2.75142e-06
3.53651e-13
0.00350423
-2.73106e-06
3.47324e-13
0.00350694
-2.71073e-06
3.46957e-13
0.00350963
-2.69044e-06
3.43364e-13
0.0035123
-2.67019e-06
3.26156e-13
0.00351495
-2.64998e-06
3.02312e-13
0.00351758
-2.62981e-06
2.96027e-13
0.00352019
-2.60969e-06
3.14541e-13
0.00352278
-2.58961e-06
3.42651e-13
0.00352535
-2.56958e-06
3.64411e-13
0.0035279
-2.5496e-06
3.77573e-13
0.00353043
-2.52966e-06
3.84557e-13
0.00353294
-2.50978e-06
3.94611e-13
0.00353543
-2.48994e-06
4.11016e-13
0.0035379
-2.47016e-06
4.24667e-13
0.00354035
-2.45043e-06
4.30365e-13
0.00354278
-2.43076e-06
4.4453e-13
0.00354519
-2.41114e-06
4.84221e-13
0.00354758
-2.39158e-06
5.37691e-13
0.00354996
-2.37208e-06
5.79189e-13
0.00355231
-2.35263e-06
6.00941e-13
0.00355464
-2.33325e-06
6.19915e-13
0.00355696
-2.31393e-06
6.29416e-13
0.00355925
-2.29467e-06
6.41225e-13
0.00356153
-2.27547e-06
6.4714e-13
0.00356378
-2.25633e-06
6.55364e-13
0.00356602
-2.23726e-06
6.60169e-13
0.00356824
-2.21826e-06
6.39716e-13
0.00357044
-2.19932e-06
6.15465e-13
0.00357262
-2.18045e-06
6.128e-13
0.00357478
-2.16164e-06
6.12027e-13
0.00357692
-2.14291e-06
5.90238e-13
0.00357905
-2.12425e-06
5.47678e-13
0.00358115
-2.10565e-06
5.09581e-13
0.00358324
-2.08713e-06
5.00743e-13
0.00358531
-2.06868e-06
5.08261e-13
0.00358736
-2.05031e-06
5.0687e-13
0.00358939
-2.032e-06
4.95155e-13
0.0035914
-2.01377e-06
4.95091e-13
0.0035934
-1.99562e-06
5.02206e-13
0.00359538
-1.97754e-06
4.93742e-13
0.00359734
-1.95954e-06
4.64279e-13
0.00359928
-1.94162e-06
4.3474e-13
0.0036012
-1.92377e-06
4.23234e-13
0.00360311
-1.90601e-06
4.2402e-13
0.003605
-1.88832e-06
4.17482e-13
0.00360687
-1.87071e-06
3.96023e-13
0.00360872
-1.85318e-06
3.66839e-13
0.00361056
-1.83573e-06
3.40067e-13
0.00361237
-1.81837e-06
3.18261e-13
0.00361417
-1.80108e-06
3.00481e-13
0.00361596
-1.78388e-06
2.91929e-13
0.00361773
-1.76676e-06
2.89976e-13
0.00361948
-1.74972e-06
2.96036e-13
0.00362121
-1.73277e-06
3.0344e-13
0.00362292
-1.7159e-06
3.12133e-13
0.00362462
-1.69912e-06
3.29095e-13
0.00362631
-1.68243e-06
3.46648e-13
0.00362797
-1.66581e-06
3.43983e-13
0.00362962
-1.64929e-06
3.21452e-13
0.00363125
-1.63285e-06
2.97312e-13
0.00363287
-1.6165e-06
2.88723e-13
0.00363447
-1.60024e-06
2.90856e-13
0.00363605
-1.58406e-06
2.98125e-13
0.00363762
-1.56797e-06
3.0806e-13
0.00363917
-1.55197e-06
3.25581e-13
0.00364071
-1.53606e-06
3.43408e-13
0.00364223
-1.52024e-06
3.5668e-13
0.00364374
-1.50451e-06
3.70523e-13
0.00364522
-1.48887e-06
3.89463e-13
0.0036467
-1.47332e-06
4.18611e-13
0.00364816
-1.45786e-06
4.52855e-13
0.0036496
-1.44249e-06
4.96405e-13
0.00365102
-1.42721e-06
5.35189e-13
0.00365244
-1.41202e-06
5.60339e-13
0.00365383
-1.39692e-06
5.60274e-13
0.00365522
-1.38192e-06
5.4873e-13
0.00365658
-1.36701e-06
5.47013e-13
0.00365793
-1.35219e-06
5.52648e-13
0.00365927
-1.33746e-06
5.5511e-13
0.0036606
-1.32283e-06
5.46812e-13
0.0036619
-1.30828e-06
5.5145e-13
0.0036632
-1.29384e-06
5.6803e-13
0.00366448
-1.27948e-06
5.83998e-13
0.00366574
-1.26522e-06
5.97054e-13
0.00366699
-1.25105e-06
6.1744e-13
0.00366823
-1.23698e-06
6.40454e-13
0.00366945
-1.223e-06
6.35888e-13
0.00367066
-1.20911e-06
6.06281e-13
0.00367186
-1.19532e-06
5.74578e-13
0.00367304
-1.18162e-06
5.34267e-13
0.00367421
-1.16801e-06
4.71859e-13
0.00367536
-1.15451e-06
4.0301e-13
0.0036765
-1.14109e-06
3.37347e-13
0.00367763
-1.12777e-06
2.86574e-13
0.00367874
-1.11454e-06
2.81486e-13
0.00367985
-1.10141e-06
3.02843e-13
0.00368093
-1.08838e-06
3.0552e-13
0.00368201
-1.07544e-06
2.95847e-13
0.00368307
-1.06259e-06
3.07634e-13
0.00368412
-1.04984e-06
3.09551e-13
0.00368516
-1.03718e-06
2.51171e-13
0.00368618
-1.02462e-06
1.59069e-13
0.0036872
-1.01216e-06
1.10333e-13
0.0036882
-9.99785e-07
1.13096e-13
0.00368918
-9.87508e-07
9.78409e-14
0.00369016
-9.75327e-07
6.0164e-14
0.00369112
-9.6324e-07
-2.28745e-14
0.00369207
-9.51248e-07
-1.02396e-13
0.00369301
-9.39351e-07
-1.37202e-13
0.00369394
-9.27549e-07
-1.48816e-13
0.00369486
-9.15841e-07
-1.36329e-13
0.00369576
-9.04229e-07
-9.99226e-14
0.00369665
-8.9271e-07
-1.12358e-13
0.00369753
-8.81286e-07
-1.50204e-13
0.0036984
-8.69957e-07
-1.63548e-13
0.00369926
-8.58722e-07
-1.85005e-13
0.00370011
-8.47581e-07
-2.15442e-13
0.00370095
-8.36534e-07
-2.43144e-13
0.00370177
-8.25581e-07
-2.67144e-13
0.00370259
-8.14721e-07
-2.77424e-13
0.00370339
-8.03956e-07
-3.30129e-13
0.00370419
-7.93284e-07
-4.22418e-13
0.00370497
-7.82705e-07
-4.52038e-13
0.00370574
-7.72219e-07
-4.65559e-13
0.0037065
-7.61827e-07
-4.66853e-13
0.00370725
-7.51527e-07
-4.84493e-13
0.00370799
-7.4132e-07
-5.11107e-13
0.00370873
-7.31206e-07
-5.40332e-13
0.00370945
-7.21183e-07
-5.94886e-13
0.00371016
-7.11253e-07
-6.39289e-13
0.00371086
-7.01415e-07
-6.50881e-13
0.00371155
-6.91668e-07
-6.53501e-13
0.00371223
-6.82013e-07
-6.40957e-13
0.00371291
-6.72449e-07
-6.17181e-13
0.00371357
-6.62976e-07
-6.22409e-13
0.00371422
-6.53594e-07
-6.39074e-13
0.00371487
-6.44302e-07
-5.64467e-13
0.0037155
-6.35101e-07
-4.42007e-13
0.00371613
-6.25989e-07
-3.88261e-13
0.00371674
-6.16967e-07
-3.8368e-13
0.00371735
-6.08034e-07
-4.22713e-13
0.00371795
-5.99191e-07
-4.43048e-13
0.00371854
-5.90436e-07
-4.13764e-13
0.00371912
-5.8177e-07
-3.77533e-13
0.0037197
-5.73192e-07
-3.78645e-13
0.00372026
-5.64702e-07
-4.07231e-13
0.00372082
-5.56299e-07
-4.25354e-13
0.00372137
-5.47984e-07
-4.19639e-13
0.00372191
-5.39755e-07
-4.1446e-13
0.00372244
-5.31613e-07
-4.0345e-13
0.00372296
-5.23558e-07
-3.47288e-13
0.00372348
-5.15588e-07
-2.46952e-13
0.00372398
-5.07704e-07
-1.73926e-13
0.00372448
-4.99905e-07
-1.38503e-13
0.00372498
-4.92191e-07
-9.20446e-14
0.00372546
-4.84561e-07
-2.38451e-14
0.00372594
-4.77016e-07
-2.48706e-14
0.00372641
-4.69554e-07
1.07005e-14
0.00372687
-4.62175e-07
1.67623e-13
0.00372732
-4.54879e-07
2.71967e-13
0.00372777
-4.47665e-07
2.80874e-13
0.00372821
-4.40534e-07
2.70979e-13
0.00372865
-4.33485e-07
1.913e-13
0.00372907
-4.26516e-07
2.08427e-13
0.00372949
-4.19629e-07
2.56195e-13
0.00372991
-4.12821e-07
2.50844e-13
0.00373031
-4.06094e-07
3.02403e-13
0.00373071
-3.99447e-07
2.94598e-13
0.0037311
-3.92878e-07
2.28499e-13
0.00373149
-3.86388e-07
1.95416e-13
0.00373187
-3.79976e-07
1.75064e-13
0.00373224
-3.73642e-07
1.67576e-13
0.00373261
-3.67386e-07
1.95918e-13
0.00373297
-3.61206e-07
1.64653e-13
0.00373333
-3.55102e-07
1.5375e-13
0.00373368
-3.49074e-07
1.72451e-13
0.00373402
-3.43122e-07
1.59035e-13
0.00373436
-3.37244e-07
8.37103e-14
0.00373469
-3.31441e-07
1.19874e-13
0.00373501
-3.25712e-07
9.34514e-14
0.00373533
-3.20056e-07
3.21661e-14
0.00373565
-3.14473e-07
8.38523e-14
0.00373596
-3.08962e-07
1.49311e-13
0.00373626
-3.03523e-07
1.5908e-13
0.00373656
-2.98155e-07
8.08955e-14
0.00373685
-2.92858e-07
1.64665e-13
0.00373714
-2.87631e-07
2.17869e-13
0.00373742
-2.82474e-07
2.59171e-14
0.0037377
-2.77385e-07
-9.77424e-14
0.00373797
-2.72365e-07
-4.9345e-14
0.00373824
-2.67413e-07
-4.78406e-14
0.0037385
-2.62529e-07
-5.54714e-14
0.00373876
-2.5771e-07
-6.2683e-14
0.00373901
-2.52958e-07
-1.98983e-13
0.00373926
-2.48271e-07
-2.06649e-13
0.0037395
-2.43649e-07
-2.28668e-13
0.00373974
-2.39091e-07
-2.03103e-13
0.00373998
-2.34597e-07
-1.16829e-13
0.00374021
-2.30165e-07
-1.40355e-13
0.00374043
-2.25795e-07
-2.52738e-13
0.00374066
-2.21486e-07
-1.93518e-13
0.00374087
-2.17237e-07
-4.36886e-14
0.00374109
-2.13048e-07
-1.89949e-13
0.00374129
-2.08918e-07
-1.2585e-13
0.0037415
-2.04846e-07
-6.48597e-14
0.0037417
-2.00831e-07
-1.45785e-13
0.0037419
-1.96873e-07
-4.72572e-14
0.00374209
-1.9297e-07
-7.75598e-14
0.00374228
-1.89121e-07
-8.09482e-14
0.00374246
-1.85325e-07
-2.0257e-15
0.00374265
-1.81582e-07
-1.32489e-13
0.00374282
-1.7789e-07
-1.8518e-13
0.003743
-1.74248e-07
-2.76786e-13
0.00374317
-1.70656e-07
-4.69777e-13
0.00374334
-1.67111e-07
-1.9114e-13
0.0037435
-1.63613e-07
-1.96363e-13
0.00374366
-1.60162e-07
-3.54179e-13
0.00374382
-1.56754e-07
-4.39694e-13
0.00374397
-1.53389e-07
-1.98232e-13
0.00374412
-1.50067e-07
-1.33782e-13
0.00374427
-1.46784e-07
-2.29528e-13
0.00374441
-1.43542e-07
-2.72491e-13
0.00374455
-1.40336e-07
-2.32457e-13
0.00374469
-1.37168e-07
-2.35285e-13
0.00374482
-1.34034e-07
-2.69823e-13
0.00374495
-1.30933e-07
-3.65795e-13
0.00374508
-1.27866e-07
-4.25609e-13
0.00374521
-1.24829e-07
-4.98921e-13
0.00374533
-1.21822e-07
-3.39891e-13
0.00374545
-1.18843e-07
-1.82423e-13
0.00374556
-1.15892e-07
-9.91961e-14
0.00374568
-1.12966e-07
-4.31484e-13
0.00374579
-1.10065e-07
-5.50607e-13
0.00374589
-1.07187e-07
-2.9856e-13
0.003746
-1.04331e-07
-4.29555e-13
0.0037461
-1.01498e-07
-4.54108e-13
0.0037462
-9.86847e-08
-5.33908e-13
0.00374629
-9.58917e-08
-6.4869e-13
0.00374639
-9.31178e-08
-6.63145e-13
0.00374648
-9.03629e-08
-5.30989e-13
0.00374656
-8.76268e-08
-4.2682e-13
0.00374665
-8.4909e-08
-4.46062e-13
0.00374673
-8.22094e-08
-5.45233e-13
0.00374681
-7.95285e-08
-3.87781e-13
0.00374689
-7.68663e-08
-4.77801e-13
0.00374696
-7.42233e-08
-4.677e-13
0.00374703
-7.16002e-08
-4.7963e-13
0.0037471
-6.8998e-08
-4.8145e-13
0.00374717
-6.64176e-08
-4.83937e-13
0.00374723
-6.38603e-08
-5.20611e-13
0.00374729
-6.13276e-08
-5.57888e-13
0.00374735
-5.88209e-08
-5.64403e-13
0.00374741
-5.63422e-08
-4.32931e-13
0.00374746
-5.38932e-08
-4.23067e-13
0.00374751
-5.14766e-08
-2.2187e-13
0.00374756
-4.9094e-08
-3.29734e-13
0.00374761
-4.67479e-08
-4.50855e-13
0.00374765
-4.44407e-08
-3.25587e-13
0.0037477
-4.21751e-08
-1.21861e-13
0.00374774
-3.99535e-08
-2.46877e-13
0.00374777
-3.77785e-08
-2.20382e-13
0.00374781
-3.56527e-08
-1.71715e-13
0.00374784
-3.35788e-08
8.93523e-15
0.00374788
-3.15589e-08
-2.07969e-13
0.00374791
-2.95961e-08
-2.68923e-13
0.00374793
-2.76927e-08
-2.27813e-13
0.00374796
-2.58502e-08
-3.68858e-13
0.00374798
-2.40717e-08
-1.75073e-13
0.00374801
-2.23585e-08
-3.0349e-13
0.00374803
-2.07126e-08
-2.65609e-13
0.00374805
-1.9135e-08
-2.22901e-13
0.00374806
-1.76272e-08
-1.21782e-13
0.00374808
-1.61903e-08
-2.8537e-13
0.00374809
-1.4825e-08
-1.6543e-13
0.00374811
-1.35311e-08
-9.1246e-14
0.00374812
-1.23091e-08
-3.72842e-14
0.00374813
-1.11588e-08
-2.44908e-13
0.00374814
-1.008e-08
-1.44927e-13
0.00374815
-9.071e-09
-3.49804e-13
0.00374816
-8.13147e-09
-1.06301e-13
0.00374817
-7.25925e-09
-2.36784e-13
0.00374817
-6.45348e-09
-2.59564e-13
0.00374818
-5.71172e-09
-3.78859e-13
0.00374818
-5.03145e-09
-5.30525e-13
0.00374819
-4.41136e-09
-2.66825e-13
0.00374819
-3.84793e-09
-3.95685e-13
0.00374819
-3.33881e-09
-2.45151e-13
0.0037482
-2.88079e-09
-2.09396e-13
0.0037482
-2.47114e-09
-2.01087e-13
0.0037482
-2.10677e-09
-9.07095e-14
0.0037482
-1.78428e-09
-1.09188e-13
0.0037482
-1.50082e-09
-8.19727e-14
0.00374821
-1.25329e-09
-1.49829e-13
0.00374821
-1.03867e-09
-8.61963e-14
0.00374821
-8.53525e-10
-1.34678e-13
0.00374821
-6.95405e-10
-1.70727e-13
0.00374821
-5.6139e-10
-1.79921e-13
0.00374821
-4.48735e-10
-1.55138e-13
0.00374821
-3.55104e-10
-1.59833e-13
0.00374821
-2.78061e-10
-8.72263e-14
0.00374821
-2.15304e-10
-1.31325e-14
0.00374821
-1.64946e-10
2.5058e-13
0.00374821
-1.24537e-10
-9.09021e-14
0.00374821
-9.3717e-11
2.48761e-13
0.00374821
-6.95004e-11
9.40113e-14
0.00374821
-5.15687e-11
3.03749e-13
0.00374821
-3.83756e-11
3.06707e-13
0.00374821
-2.91522e-11
2.39868e-13
0.00374821
-2.32042e-11
6.42808e-13
0.00374821
-1.89648e-11
4.50044e-13
0.00374821
-1.66707e-11
4.11108e-13
0.00374821
-1.55727e-11
2.472e-13
0.00374821
-1.54506e-11
4.02975e-13
0.00374821
-1.58023e-11
3.06307e-13
0.00374821
-1.63042e-11
3.21961e-13
0.00374821
-1.69762e-11
4.06907e-13
0.00374821
-1.75888e-11
2.09537e-13
0.00374821
-1.84777e-11
2.99161e-13
0.00374821
-1.88279e-11
2.12221e-13
0.00374821
-1.97425e-11
4.7315e-13
0.00374821
-1.9901e-11
2.99705e-13
0.00374821
-1.99168e-11
2.95282e-13
0.00374821
-2.06521e-11
7.53466e-13
0.00374821
-1.98203e-11
2.68139e-14
0.00374821
-1.99941e-11
4.09301e-13
0.00374821
-1.9731e-11
2.12113e-13
0.00374821
-1.97153e-11
4.85177e-13
0.00374821
-1.92271e-11
3.04572e-13
0.00374821
-1.91561e-11
2.92128e-13
0.00374821
-1.89203e-11
2.84298e-13
0.00374821
-1.87963e-11
4.56608e-13
0.00374821
-1.81557e-11
1.99355e-13
0.00374821
-1.82434e-11
3.9997e-13
0.00374821
-1.7839e-11
1.82978e-13
0.00374821
-1.78081e-11
4.68189e-13
0.00374821
-1.72172e-11
-7.87368e-14
0.00374821
-1.73888e-11
2.83837e-13
0.00374821
-1.70448e-11
1.10786e-13
0.00374821
-1.6758e-11
7.22104e-14
0.00374821
-1.65418e-11
1.86401e-13
0.00374821
-1.63057e-11
-2.8722e-14
0.00374821
-1.58982e-11
-1.66167e-13
0.00374821
-1.59835e-11
4.33774e-14
0.00374821
-1.56942e-11
1.75326e-14
0.00374821
-1.55231e-11
-5.66215e-14
0.00374821
-1.54428e-11
-3.88676e-14
0.00374821
-1.51071e-11
-6.27476e-14
0.00374821
-1.52502e-11
5.92397e-14
0.00374821
-1.48996e-11
-9.86437e-14
0.00374821
-1.44514e-11
-1.77216e-13
0.00374821
-1.43625e-11
4.37736e-14
0.00374821
-1.3981e-11
-1.62014e-13
0.00374821
-1.40958e-11
-1.76896e-13
0.00374821
-1.39446e-11
-1.20886e-13
0.00374821
-1.37751e-11
8.1496e-14
0.00374821
-1.32955e-11
-9.59043e-15
0.00374821
-1.32841e-11
-9.01553e-14
0.00374821
-1.31956e-11
1.44341e-13
0.00374821
-1.2826e-11
-2.38986e-14
0.00374821
-1.26847e-11
2.14312e-13
0.00374821
-1.20444e-11
3.24091e-14
0.00374821
-1.19777e-11
5.10487e-13
0.00374821
-1.07096e-11
-2.15819e-13
0.00374821
-1.01418e-11
4.31458e-14
0.00374821
-7.95124e-12
2.82346e-13
0.00374821
-5.94687e-12
5.14754e-13
-2.15878e-12
2.34753e-14
0.00240039
-1.40666e-07
0.0024006
-4.2503e-07
0.00240096
-7.12898e-07
0.00240145
-1.00369e-06
0.0024021
-1.29699e-06
0.00240288
-1.59239e-06
0.00240382
-1.88945e-06
0.0024049
-2.18774e-06
0.00240613
-2.48681e-06
0.00240751
-2.7862e-06
0.00240904
-3.08547e-06
0.00241071
-3.38416e-06
0.00241254
-3.68181e-06
0.00241451
-3.97798e-06
0.00241662
-4.27222e-06
0.00241888
-4.5641e-06
0.00242128
-4.85319e-06
0.00242382
-5.13907e-06
0.0024265
-5.42135e-06
0.00242932
-5.69963e-06
0.00243227
-5.97354e-06
0.00243536
-6.24274e-06
0.00243857
-6.50688e-06
0.00244192
-6.76567e-06
0.00244539
-7.01879e-06
0.00244897
-7.26599e-06
0.00245268
-7.50702e-06
0.00245651
-7.74165e-06
0.00246044
-7.96967e-06
0.00246448
-8.19092e-06
0.00246863
-8.40523e-06
0.00247288
-8.61247e-06
0.00247723
-8.81254e-06
0.00248167
-9.00535e-06
0.0024862
-9.19082e-06
0.00249082
-9.36893e-06
0.00249553
-9.53964e-06
0.00250031
-9.70295e-06
0.00250517
-9.85888e-06
0.0025101
-1.00075e-05
0.0025151
-1.01487e-05
0.00252016
-1.02828e-05
0.00252529
-1.04097e-05
0.00253047
-1.05295e-05
0.00253571
-1.06423e-05
0.002541
-1.07484e-05
0.00254634
-1.08477e-05
0.00255173
-1.09405e-05
0.00255715
-1.10268e-05
0.00256262
-1.11069e-05
0.00256812
-1.11808e-05
0.00257365
-1.12489e-05
0.00257921
-1.13111e-05
0.0025848
-1.13678e-05
0.00259041
-1.1419e-05
0.00259605
-1.14651e-05
0.0026017
-1.1506e-05
0.00260738
-1.15421e-05
0.00261306
-1.15735e-05
0.00261877
-1.16004e-05
0.00262448
-1.1623e-05
0.0026302
-1.16414e-05
0.00263592
-1.16558e-05
0.00264165
-1.16665e-05
0.00264739
-1.16735e-05
0.00265312
-1.16771e-05
0.00265885
-1.16774e-05
0.00266459
-1.16746e-05
0.00267032
-1.16688e-05
0.00267604
-1.16602e-05
0.00268176
-1.1649e-05
0.00268747
-1.16352e-05
0.00269318
-1.16191e-05
0.00269887
-1.16007e-05
0.00270456
-1.15803e-05
0.00271023
-1.15578e-05
0.00271589
-1.15335e-05
0.00272154
-1.15075e-05
0.00272717
-1.14799e-05
0.00273279
-1.14507e-05
0.00273839
-1.14201e-05
0.00274398
-1.13883e-05
0.00274955
-1.13552e-05
0.00275511
-1.1321e-05
0.00276064
-1.12858e-05
0.00276616
-1.12497e-05
0.00277166
-1.12126e-05
0.00277714
-1.11748e-05
0.0027826
-1.11363e-05
0.00278804
-1.10971e-05
0.00279347
-1.10573e-05
0.00279887
-1.1017e-05
0.00280425
-1.09762e-05
0.00280961
-1.0935e-05
0.00281495
-1.08934e-05
0.00282027
-1.08514e-05
0.00282557
-1.08092e-05
0.00283084
-1.07668e-05
0.0028361
-1.07241e-05
0.00284133
-1.06813e-05
0.00284654
-1.06384e-05
0.00285173
-1.05953e-05
0.0028569
-1.05522e-05
0.00286205
-1.0509e-05
0.00286717
-1.04658e-05
0.00287227
-1.04225e-05
0.00287735
-1.03793e-05
0.00288241
-1.03361e-05
0.00288745
-1.0293e-05
0.00289246
-1.02499e-05
0.00289746
-1.02069e-05
0.00290243
-1.0164e-05
0.00290738
-1.01211e-05
0.00291231
-1.00784e-05
0.00291721
-1.00358e-05
0.0029221
-9.99329e-06
0.00292696
-9.9509e-06
0.0029318
-9.90864e-06
0.00293662
-9.86651e-06
0.00294142
-9.8245e-06
0.0029462
-9.78263e-06
0.00295096
-9.74089e-06
0.00295569
-9.69928e-06
0.0029604
-9.6578e-06
0.0029651
-9.61646e-06
0.00296977
-9.57523e-06
0.00297442
-9.53414e-06
0.00297905
-9.49317e-06
0.00298366
-9.45231e-06
0.00298824
-9.41158e-06
0.00299281
-9.37095e-06
0.00299736
-9.33043e-06
0.00300188
-9.29002e-06
0.00300638
-9.2497e-06
0.00301087
-9.20948e-06
0.00301533
-9.16934e-06
0.00301977
-9.12929e-06
0.0030242
-9.08932e-06
0.0030286
-9.04943e-06
0.00303298
-9.0096e-06
0.00303734
-8.96983e-06
0.00304168
-8.93012e-06
0.003046
-8.89046e-06
0.0030503
-8.85085e-06
0.00305458
-8.81129e-06
0.00305884
-8.77176e-06
0.00306308
-8.73226e-06
0.0030673
-8.69279e-06
0.0030715
-8.65334e-06
0.00307568
-8.61391e-06
0.00307984
-8.57449e-06
0.00308398
-8.53508e-06
0.0030881
-8.49567e-06
0.0030922
-8.45627e-06
0.00309627
-8.41686e-06
0.00310033
-8.37744e-06
0.00310437
-8.33802e-06
0.00310839
-8.29858e-06
0.00311239
-8.25912e-06
0.00311637
-8.21965e-06
0.00312033
-8.18015e-06
0.00312427
-8.14062e-06
0.00312818
-8.10107e-06
0.00313208
-8.06149e-06
0.00313596
-8.02187e-06
0.00313982
-7.98223e-06
0.00314366
-7.94254e-06
0.00314748
-7.90282e-06
0.00315128
-7.86306e-06
0.00315505
-7.82327e-06
0.00315881
-7.78343e-06
0.00316255
-7.74355e-06
0.00316627
-7.70363e-06
0.00316997
-7.66367e-06
0.00317365
-7.62367e-06
0.00317731
-7.58362e-06
0.00318095
-7.54353e-06
0.00318456
-7.50341e-06
0.00318816
-7.46323e-06
0.00319174
-7.42302e-06
0.0031953
-7.38277e-06
0.00319884
-7.34248e-06
0.00320236
-7.30216e-06
0.00320585
-7.26179e-06
0.00320933
-7.22139e-06
0.00321279
-7.18096e-06
0.00321623
-7.14049e-06
0.00321965
-7.09999e-06
0.00322304
-7.05946e-06
0.00322642
-7.0189e-06
0.00322978
-6.97831e-06
0.00323312
-6.9377e-06
0.00323644
-6.89707e-06
0.00323973
-6.85642e-06
0.00324301
-6.81575e-06
0.00324627
-6.77506e-06
0.00324951
-6.73436e-06
0.00325272
-6.69365e-06
0.00325592
-6.65293e-06
0.0032591
-6.6122e-06
0.00326226
-6.57147e-06
0.00326539
-6.53073e-06
0.00326851
-6.49e-06
0.00327161
-6.44927e-06
0.00327469
-6.40854e-06
0.00327775
-6.36782e-06
0.00328078
-6.32712e-06
0.0032838
-6.28643e-06
0.0032868
-6.24575e-06
0.00328978
-6.2051e-06
0.00329274
-6.16446e-06
0.00329567
-6.12385e-06
0.00329859
-6.08327e-06
0.00330149
-6.04271e-06
0.00330437
-6.00219e-06
0.00330723
-5.96171e-06
0.00331007
-5.92126e-06
0.00331289
-5.88086e-06
0.00331569
-5.84049e-06
0.00331847
-5.80018e-06
0.00332124
-5.75991e-06
0.00332398
-5.71969e-06
0.0033267
-5.67953e-06
0.0033294
-5.63942e-06
0.00333209
-5.59938e-06
0.00333475
-5.55939e-06
0.0033374
-5.51947e-06
0.00334002
-5.47962e-06
0.00334263
-5.43983e-06
0.00334522
-5.40012e-06
0.00334779
-5.36048e-06
0.00335034
-5.32092e-06
0.00335287
-5.28144e-06
0.00335538
-5.24204e-06
0.00335787
-5.20272e-06
0.00336034
-5.16349e-06
0.0033628
-5.12434e-06
0.00336523
-5.08529e-06
0.00336765
-5.04633e-06
0.00337005
-5.00747e-06
0.00337242
-4.9687e-06
0.00337478
-4.93003e-06
0.00337713
-4.89146e-06
0.00337945
-4.853e-06
0.00338175
-4.81464e-06
0.00338404
-4.77639e-06
0.00338631
-4.73825e-06
0.00338856
-4.70022e-06
0.00339079
-4.6623e-06
0.003393
-4.6245e-06
0.0033952
-4.58682e-06
0.00339738
-4.54925e-06
0.00339954
-4.5118e-06
0.00340168
-4.47448e-06
0.0034038
-4.43728e-06
0.00340591
-4.4002e-06
0.00340799
-4.36325e-06
0.00341006
-4.32643e-06
0.00341212
-4.28974e-06
0.00341415
-4.25319e-06
0.00341617
-4.21676e-06
0.00341817
-4.18047e-06
0.00342015
-4.14432e-06
0.00342212
-4.1083e-06
0.00342406
-4.07243e-06
0.003426
-4.03669e-06
0.00342791
-4.0011e-06
0.00342981
-3.96565e-06
0.00343169
-3.93034e-06
0.00343355
-3.89518e-06
0.0034354
-3.86016e-06
0.00343723
-3.8253e-06
0.00343904
-3.79058e-06
0.00344084
-3.75601e-06
0.00344262
-3.7216e-06
0.00344438
-3.68733e-06
0.00344613
-3.65323e-06
0.00344786
-3.61927e-06
0.00344957
-3.58547e-06
0.00345127
-3.55183e-06
0.00345295
-3.51835e-06
0.00345462
-3.48502e-06
0.00345627
-3.45186e-06
0.00345791
-3.41885e-06
0.00345952
-3.38601e-06
0.00346113
-3.35333e-06
0.00346272
-3.32081e-06
0.00346429
-3.28845e-06
0.00346585
-3.25627e-06
0.00346739
-3.22424e-06
0.00346891
-3.19238e-06
0.00347043
-3.16069e-06
0.00347192
-3.12917e-06
0.0034734
-3.09782e-06
0.00347487
-3.06663e-06
0.00347632
-3.03562e-06
0.00347776
-3.00477e-06
0.00347918
-2.9741e-06
0.00348059
-2.9436e-06
0.00348198
-2.91327e-06
0.00348336
-2.88311e-06
0.00348472
-2.85313e-06
0.00348607
-2.82332e-06
0.00348741
-2.79368e-06
0.00348873
-2.76422e-06
0.00349004
-2.73494e-06
0.00349133
-2.70583e-06
0.00349261
-2.6769e-06
0.00349388
-2.64814e-06
0.00349513
-2.61957e-06
0.00349637
-2.59117e-06
0.0034976
-2.56294e-06
0.00349881
-2.5349e-06
0.00350001
-2.50703e-06
0.00350119
-2.47934e-06
0.00350237
-2.45184e-06
0.00350352
-2.42451e-06
0.00350467
-2.39736e-06
0.0035058
-2.37039e-06
0.00350692
-2.3436e-06
0.00350803
-2.317e-06
0.00350913
-2.29057e-06
0.00351021