/*--------------------------------*- C++ -*----------------------------------*\
  =========                 |
  \\      /  F ield         | OpenFOAM: The Open Source CFD Toolbox
   \\    /   O peration     | Website:  https://openfoam.org
    \\  /    A nd           | Version:  7
     \\/     M anipulation  |
\*---------------------------------------------------------------------------*/
FoamFile
{
    version     2.0;
    format      ascii;
    class       volVectorField;
    location    "9";
    object      U;
}
// * * * * * * * * * * * * * * * * * * * * * * * * * * * * * * * * * * * * * //

dimensions      [0 1 -1 0 0 0 0];

internalField   nonuniform List<vector> 
48000
(
(1.00001 -5.53414e-05 0)
(1.00006 -0.000166425 0)
(1.00017 -0.000277962 0)
(1.00034 -0.00038978 0)
(1.00058 -0.000501716 0)
(1.00087 -0.000613608 0)
(1.00122 -0.00072529 0)
(1.00163 -0.000836599 0)
(1.0021 -0.000947367 0)
(1.00264 -0.00105743 0)
(1.00323 -0.00116662 0)
(1.00388 -0.00127479 0)
(1.00459 -0.00138176 0)
(1.00537 -0.00148739 0)
(1.0062 -0.00159152 0)
(1.00709 -0.001694 0)
(1.00805 -0.0017947 0)
(1.00905 -0.00189349 0)
(1.01012 -0.00199022 0)
(1.01125 -0.00208479 0)
(1.01243 -0.00217707 0)
(1.01366 -0.00226697 0)
(1.01495 -0.00235438 0)
(1.01629 -0.00243921 0)
(1.01769 -0.00252139 0)
(1.01913 -0.00260084 0)
(1.02063 -0.0026775 0)
(1.02217 -0.00275132 0)
(1.02376 -0.00282224 0)
(1.0254 -0.00289024 0)
(1.02708 -0.00295529 0)
(1.0288 -0.00301737 0)
(1.03056 -0.00307646 0)
(1.03237 -0.00313256 0)
(1.03421 -0.00318569 0)
(1.03609 -0.00323585 0)
(1.03801 -0.00328305 0)
(1.03996 -0.00332734 0)
(1.04194 -0.00336873 0)
(1.04396 -0.00340727 0)
(1.046 -0.00344301 0)
(1.04808 -0.00347598 0)
(1.05017 -0.00350625 0)
(1.0523 -0.00353386 0)
(1.05445 -0.00355889 0)
(1.05662 -0.0035814 0)
(1.05881 -0.00360145 0)
(1.06102 -0.00361911 0)
(1.06325 -0.00363446 0)
(1.0655 -0.00364757 0)
(1.06777 -0.00365852 0)
(1.07005 -0.00366738 0)
(1.07234 -0.00367422 0)
(1.07464 -0.00367914 0)
(1.07696 -0.0036822 0)
(1.07928 -0.00368348 0)
(1.08162 -0.00368306 0)
(1.08396 -0.00368101 0)
(1.08631 -0.00367742 0)
(1.08867 -0.00367236 0)
(1.09103 -0.0036659 0)
(1.09339 -0.00365811 0)
(1.09576 -0.00364906 0)
(1.09814 -0.00363883 0)
(1.10051 -0.00362749 0)
(1.10288 -0.00361509 0)
(1.10526 -0.0036017 0)
(1.10764 -0.00358739 0)
(1.11001 -0.00357222 0)
(1.11238 -0.00355624 0)
(1.11476 -0.00353951 0)
(1.11713 -0.00352208 0)
(1.11949 -0.00350401 0)
(1.12186 -0.00348535 0)
(1.12421 -0.00346615 0)
(1.12657 -0.00344644 0)
(1.12892 -0.00342629 0)
(1.13126 -0.00340572 0)
(1.1336 -0.00338478 0)
(1.13594 -0.00336351 0)
(1.13827 -0.00334194 0)
(1.14059 -0.00332011 0)
(1.14291 -0.00329805 0)
(1.14521 -0.00327579 0)
(1.14752 -0.00325336 0)
(1.14981 -0.00323079 0)
(1.1521 -0.0032081 0)
(1.15438 -0.00318533 0)
(1.15665 -0.00316248 0)
(1.15892 -0.00313959 0)
(1.16117 -0.00311667 0)
(1.16342 -0.00309374 0)
(1.16566 -0.00307082 0)
(1.1679 -0.00304792 0)
(1.17012 -0.00302506 0)
(1.17234 -0.00300226 0)
(1.17454 -0.00297952 0)
(1.17674 -0.00295686 0)
(1.17893 -0.00293429 0)
(1.18112 -0.00291182 0)
(1.18329 -0.00288945 0)
(1.18545 -0.00286719 0)
(1.18761 -0.00284506 0)
(1.18976 -0.00282305 0)
(1.1919 -0.00280118 0)
(1.19403 -0.00277944 0)
(1.19615 -0.00275785 0)
(1.19827 -0.0027364 0)
(1.20037 -0.0027151 0)
(1.20247 -0.00269396 0)
(1.20456 -0.00267296 0)
(1.20664 -0.00265212 0)
(1.20871 -0.00263144 0)
(1.21077 -0.00261091 0)
(1.21283 -0.00259054 0)
(1.21487 -0.00257033 0)
(1.21691 -0.00255028 0)
(1.21894 -0.00253038 0)
(1.22096 -0.00251064 0)
(1.22297 -0.00249105 0)
(1.22498 -0.00247161 0)
(1.22698 -0.00245233 0)
(1.22897 -0.0024332 0)
(1.23095 -0.00241422 0)
(1.23292 -0.00239538 0)
(1.23488 -0.00237669 0)
(1.23684 -0.00235814 0)
(1.23879 -0.00233973 0)
(1.24073 -0.00232146 0)
(1.24266 -0.00230333 0)
(1.24459 -0.00228532 0)
(1.2465 -0.00226745 0)
(1.24841 -0.00224971 0)
(1.25031 -0.00223209 0)
(1.2522 -0.0022146 0)
(1.25409 -0.00219723 0)
(1.25597 -0.00217997 0)
(1.25784 -0.00216283 0)
(1.2597 -0.00214581 0)
(1.26155 -0.00212889 0)
(1.2634 -0.00211209 0)
(1.26524 -0.00209539 0)
(1.26707 -0.0020788 0)
(1.26889 -0.0020623 0)
(1.27071 -0.00204591 0)
(1.27251 -0.00202962 0)
(1.27431 -0.00201342 0)
(1.27611 -0.00199731 0)
(1.27789 -0.0019813 0)
(1.27967 -0.00196538 0)
(1.28144 -0.00194954 0)
(1.2832 -0.00193379 0)
(1.28495 -0.00191813 0)
(1.2867 -0.00190255 0)
(1.28844 -0.00188705 0)
(1.29017 -0.00187163 0)
(1.29189 -0.00185629 0)
(1.2936 -0.00184103 0)
(1.29531 -0.00182585 0)
(1.29701 -0.00181074 0)
(1.2987 -0.0017957 0)
(1.30038 -0.00178074 0)
(1.30206 -0.00176585 0)
(1.30373 -0.00175103 0)
(1.30539 -0.00173629 0)
(1.30704 -0.00172161 0)
(1.30869 -0.001707 0)
(1.31032 -0.00169246 0)
(1.31195 -0.00167799 0)
(1.31357 -0.00166359 0)
(1.31518 -0.00164926 0)
(1.31679 -0.00163499 0)
(1.31839 -0.00162078 0)
(1.31998 -0.00160665 0)
(1.32156 -0.00159258 0)
(1.32313 -0.00157857 0)
(1.3247 -0.00156463 0)
(1.32625 -0.00155076 0)
(1.3278 -0.00153695 0)
(1.32934 -0.0015232 0)
(1.33088 -0.00150953 0)
(1.3324 -0.00149591 0)
(1.33392 -0.00148236 0)
(1.33543 -0.00146888 0)
(1.33693 -0.00145546 0)
(1.33842 -0.00144211 0)
(1.3399 -0.00142882 0)
(1.34138 -0.00141559 0)
(1.34285 -0.00140244 0)
(1.34431 -0.00138935 0)
(1.34576 -0.00137632 0)
(1.3472 -0.00136336 0)
(1.34864 -0.00135047 0)
(1.35006 -0.00133764 0)
(1.35148 -0.00132488 0)
(1.35289 -0.00131219 0)
(1.35429 -0.00129957 0)
(1.35569 -0.00128701 0)
(1.35707 -0.00127452 0)
(1.35845 -0.0012621 0)
(1.35982 -0.00124974 0)
(1.36118 -0.00123746 0)
(1.36253 -0.00122525 0)
(1.36388 -0.0012131 0)
(1.36521 -0.00120102 0)
(1.36654 -0.00118902 0)
(1.36786 -0.00117708 0)
(1.36917 -0.00116521 0)
(1.37047 -0.00115342 0)
(1.37176 -0.00114169 0)
(1.37305 -0.00113004 0)
(1.37433 -0.00111846 0)
(1.3756 -0.00110695 0)
(1.37686 -0.00109551 0)
(1.37811 -0.00108414 0)
(1.37935 -0.00107285 0)
(1.38059 -0.00106162 0)
(1.38182 -0.00105047 0)
(1.38304 -0.0010394 0)
(1.38425 -0.00102839 0)
(1.38545 -0.00101746 0)
(1.38665 -0.0010066 0)
(1.38783 -0.000995817 0)
(1.38901 -0.000985106 0)
(1.39018 -0.000974468 0)
(1.39134 -0.000963904 0)
(1.39249 -0.000953414 0)
(1.39364 -0.000942998 0)
(1.39478 -0.000932656 0)
(1.3959 -0.000922387 0)
(1.39702 -0.000912193 0)
(1.39814 -0.000902073 0)
(1.39924 -0.000892028 0)
(1.40034 -0.000882056 0)
(1.40142 -0.000872159 0)
(1.4025 -0.000862336 0)
(1.40358 -0.000852587 0)
(1.40464 -0.000842913 0)
(1.40569 -0.000833312 0)
(1.40674 -0.000823786 0)
(1.40778 -0.000814334 0)
(1.40881 -0.000804956 0)
(1.40983 -0.000795651 0)
(1.41085 -0.000786421 0)
(1.41186 -0.000777264 0)
(1.41286 -0.000768181 0)
(1.41385 -0.000759172 0)
(1.41483 -0.000750236 0)
(1.41581 -0.000741373 0)
(1.41678 -0.000732584 0)
(1.41774 -0.000723867 0)
(1.41869 -0.000715224 0)
(1.41963 -0.000706653 0)
(1.42057 -0.000698154 0)
(1.4215 -0.000689728 0)
(1.42242 -0.000681375 0)
(1.42333 -0.000673093 0)
(1.42424 -0.000664883 0)
(1.42514 -0.000656744 0)
(1.42603 -0.000648677 0)
(1.42691 -0.00064068 0)
(1.42778 -0.000632755 0)
(1.42865 -0.000624901 0)
(1.42951 -0.000617116 0)
(1.43037 -0.000609402 0)
(1.43121 -0.000601758 0)
(1.43205 -0.000594184 0)
(1.43288 -0.000586678 0)
(1.4337 -0.000579242 0)
(1.43452 -0.000571875 0)
(1.43533 -0.000564576 0)
(1.43613 -0.000557346 0)
(1.43692 -0.000550183 0)
(1.43771 -0.000543089 0)
(1.43849 -0.000536061 0)
(1.43926 -0.000529101 0)
(1.44003 -0.000522207 0)
(1.44079 -0.00051538 0)
(1.44154 -0.000508619 0)
(1.44228 -0.000501923 0)
(1.44302 -0.000495293 0)
(1.44375 -0.000488729 0)
(1.44447 -0.000482229 0)
(1.44519 -0.000475793 0)
(1.4459 -0.000469422 0)
(1.4466 -0.000463114 0)
(1.4473 -0.00045687 0)
(1.44799 -0.000450689 0)
(1.44867 -0.000444571 0)
(1.44935 -0.000438516 0)
(1.45002 -0.000432522 0)
(1.45068 -0.00042659 0)
(1.45133 -0.000420719 0)
(1.45198 -0.00041491 0)
(1.45263 -0.000409161 0)
(1.45326 -0.000403472 0)
(1.45389 -0.000397843 0)
(1.45452 -0.000392274 0)
(1.45513 -0.000386764 0)
(1.45575 -0.000381312 0)
(1.45635 -0.000375919 0)
(1.45695 -0.000370585 0)
(1.45754 -0.000365307 0)
(1.45813 -0.000360088 0)
(1.45871 -0.000354925 0)
(1.45928 -0.000349819 0)
(1.45985 -0.000344768 0)
(1.46041 -0.000339774 0)
(1.46096 -0.000334835 0)
(1.46151 -0.000329952 0)
(1.46206 -0.000325123 0)
(1.46259 -0.000320348 0)
(1.46313 -0.000315627 0)
(1.46365 -0.00031096 0)
(1.46417 -0.000306346 0)
(1.46469 -0.000301784 0)
(1.4652 -0.000297275 0)
(1.4657 -0.000292819 0)
(1.4662 -0.000288413 0)
(1.46669 -0.00028406 0)
(1.46717 -0.000279757 0)
(1.46765 -0.000275504 0)
(1.46813 -0.000271302 0)
(1.4686 -0.000267149 0)
(1.46906 -0.000263046 0)
(1.46952 -0.000258992 0)
(1.46998 -0.000254986 0)
(1.47042 -0.000251029 0)
(1.47087 -0.000247119 0)
(1.4713 -0.000243257 0)
(1.47174 -0.000239442 0)
(1.47216 -0.000235674 0)
(1.47259 -0.000231952 0)
(1.473 -0.000228276 0)
(1.47342 -0.000224646 0)
(1.47382 -0.000221061 0)
(1.47422 -0.000217521 0)
(1.47462 -0.000214025 0)
(1.47501 -0.000210574 0)
(1.4754 -0.000207166 0)
(1.47578 -0.000203802 0)
(1.47616 -0.00020048 0)
(1.47654 -0.000197202 0)
(1.4769 -0.000193965 0)
(1.47727 -0.000190771 0)
(1.47763 -0.000187617 0)
(1.47798 -0.000184506 0)
(1.47833 -0.000181435 0)
(1.47868 -0.000178404 0)
(1.47902 -0.000175413 0)
(1.47935 -0.000172462 0)
(1.47969 -0.000169551 0)
(1.48001 -0.000166678 0)
(1.48034 -0.000163845 0)
(1.48066 -0.000161049 0)
(1.48097 -0.000158291 0)
(1.48128 -0.000155571 0)
(1.48159 -0.000152889 0)
(1.48189 -0.000150243 0)
(1.48219 -0.000147633 0)
(1.48249 -0.00014506 0)
(1.48278 -0.000142522 0)
(1.48306 -0.00014002 0)
(1.48334 -0.000137553 0)
(1.48362 -0.000135121 0)
(1.4839 -0.000132724 0)
(1.48417 -0.00013036 0)
(1.48443 -0.00012803 0)
(1.4847 -0.000125734 0)
(1.48496 -0.000123471 0)
(1.48521 -0.00012124 0)
(1.48547 -0.000119042 0)
(1.48571 -0.000116876 0)
(1.48596 -0.000114742 0)
(1.4862 -0.000112639 0)
(1.48644 -0.000110567 0)
(1.48667 -0.000108526 0)
(1.4869 -0.000106515 0)
(1.48713 -0.000104535 0)
(1.48735 -0.000102584 0)
(1.48757 -0.000100663 0)
(1.48779 -9.87706e-05 0)
(1.48801 -9.69072e-05 0)
(1.48822 -9.50725e-05 0)
(1.48842 -9.32659e-05 0)
(1.48863 -9.14872e-05 0)
(1.48883 -8.97361e-05 0)
(1.48903 -8.80122e-05 0)
(1.48922 -8.63153e-05 0)
(1.48942 -8.4645e-05 0)
(1.48961 -8.30011e-05 0)
(1.48979 -8.13832e-05 0)
(1.48998 -7.97911e-05 0)
(1.49016 -7.82243e-05 0)
(1.49033 -7.66828e-05 0)
(1.49051 -7.5166e-05 0)
(1.49068 -7.36739e-05 0)
(1.49085 -7.22059e-05 0)
(1.49102 -7.07619e-05 0)
(1.49118 -6.93417e-05 0)
(1.49134 -6.79448e-05 0)
(1.4915 -6.6571e-05 0)
(1.49165 -6.522e-05 0)
(1.49181 -6.38916e-05 0)
(1.49196 -6.25854e-05 0)
(1.49211 -6.13012e-05 0)
(1.49225 -6.00387e-05 0)
(1.49239 -5.87976e-05 0)
(1.49254 -5.75777e-05 0)
(1.49267 -5.63787e-05 0)
(1.49281 -5.52002e-05 0)
(1.49294 -5.40421e-05 0)
(1.49307 -5.29041e-05 0)
(1.4932 -5.17859e-05 0)
(1.49333 -5.06873e-05 0)
(1.49346 -4.96079e-05 0)
(1.49358 -4.85476e-05 0)
(1.4937 -4.7506e-05 0)
(1.49382 -4.64829e-05 0)
(1.49393 -4.54781e-05 0)
(1.49405 -4.44912e-05 0)
(1.49416 -4.35221e-05 0)
(1.49427 -4.25705e-05 0)
(1.49438 -4.16361e-05 0)
(1.49448 -4.07186e-05 0)
(1.49459 -3.98179e-05 0)
(1.49469 -3.89337e-05 0)
(1.49479 -3.80657e-05 0)
(1.49489 -3.72137e-05 0)
(1.49498 -3.63774e-05 0)
(1.49508 -3.55565e-05 0)
(1.49517 -3.47509e-05 0)
(1.49526 -3.39603e-05 0)
(1.49535 -3.31844e-05 0)
(1.49544 -3.2423e-05 0)
(1.49552 -3.16758e-05 0)
(1.49561 -3.09426e-05 0)
(1.49569 -3.02231e-05 0)
(1.49577 -2.9517e-05 0)
(1.49585 -2.88242e-05 0)
(1.49593 -2.81444e-05 0)
(1.49601 -2.74772e-05 0)
(1.49608 -2.68224e-05 0)
(1.49615 -2.61798e-05 0)
(1.49623 -2.55492e-05 0)
(1.4963 -2.49302e-05 0)
(1.49637 -2.43225e-05 0)
(1.49643 -2.3726e-05 0)
(1.4965 -2.31403e-05 0)
(1.49656 -2.25653e-05 0)
(1.49663 -2.20005e-05 0)
(1.49669 -2.14458e-05 0)
(1.49675 -2.09008e-05 0)
(1.49681 -2.03653e-05 0)
(1.49687 -1.98391e-05 0)
(1.49692 -1.93218e-05 0)
(1.49698 -1.88131e-05 0)
(1.49703 -1.83129e-05 0)
(1.49709 -1.78208e-05 0)
(1.49714 -1.73367e-05 0)
(1.49719 -1.68601e-05 0)
(1.49724 -1.63911e-05 0)
(1.49729 -1.59291e-05 0)
(1.49733 -1.54741e-05 0)
(1.49738 -1.50257e-05 0)
(1.49742 -1.45839e-05 0)
(1.49747 -1.41484e-05 0)
(1.49751 -1.37188e-05 0)
(1.49755 -1.32952e-05 0)
(1.49759 -1.28774e-05 0)
(1.49763 -1.24652e-05 0)
(1.49767 -1.20584e-05 0)
(1.4977 -1.16571e-05 0)
(1.49774 -1.12611e-05 0)
(1.49777 -1.08703e-05 0)
(1.49781 -1.04846e-05 0)
(1.49784 -1.01041e-05 0)
(1.49787 -9.72876e-06 0)
(1.4979 -9.35855e-06 0)
(1.49793 -8.99353e-06 0)
(1.49796 -8.63378e-06 0)
(1.49799 -8.27938e-06 0)
(1.49801 -7.93041e-06 0)
(1.49804 -7.58704e-06 0)
(1.49806 -7.24938e-06 0)
(1.49808 -6.91764e-06 0)
(1.49811 -6.59195e-06 0)
(1.49813 -6.2726e-06 0)
(1.49815 -5.95968e-06 0)
(1.49817 -5.65347e-06 0)
(1.49818 -5.35422e-06 0)
(1.4982 -5.06215e-06 0)
(1.49822 -4.77744e-06 0)
(1.49823 -4.50039e-06 0)
(1.49825 -4.23121e-06 0)
(1.49826 -3.97015e-06 0)
(1.49827 -3.71732e-06 0)
(1.49829 -3.47307e-06 0)
(1.4983 -3.23755e-06 0)
(1.49831 -3.01083e-06 0)
(1.49832 -2.79324e-06 0)
(1.49833 -2.58476e-06 0)
(1.49834 -2.38556e-06 0)
(1.49834 -2.19567e-06 0)
(1.49835 -2.01515e-06 0)
(1.49836 -1.84399e-06 0)
(1.49837 -1.68224e-06 0)
(1.49837 -1.52974e-06 0)
(1.49838 -1.38645e-06 0)
(1.49838 -1.25223e-06 0)
(1.49838 -1.127e-06 0)
(1.49839 -1.01044e-06 0)
(1.49839 -9.02479e-07 0)
(1.4984 -8.02705e-07 0)
(1.4984 -7.10995e-07 0)
(1.4984 -6.26959e-07 0)
(1.4984 -5.50253e-07 0)
(1.4984 -4.8071e-07 0)
(1.49841 -4.17772e-07 0)
(1.49841 -3.61192e-07 0)
(1.49841 -3.10527e-07 0)
(1.49841 -2.65414e-07 0)
(1.49841 -2.25473e-07 0)
(1.49841 -1.90275e-07 0)
(1.49841 -1.5948e-07 0)
(1.49841 -1.32699e-07 0)
(1.49841 -1.09593e-07 0)
(1.49841 -8.97361e-08 0)
(1.49841 -7.28503e-08 0)
(1.49841 -5.86038e-08 0)
(1.49841 -4.66787e-08 0)
(1.49841 -3.68124e-08 0)
(1.49841 -2.87324e-08 0)
(1.49841 -2.21712e-08 0)
(1.49841 -1.6962e-08 0)
(1.49841 -1.27363e-08 0)
(1.49841 -9.57404e-09 0)
(1.49841 -7.06623e-09 0)
(1.49841 -5.24464e-09 0)
(1.49841 -3.89559e-09 0)
(1.49841 -2.9315e-09 0)
(1.49841 -2.3724e-09 0)
(1.49841 -1.91358e-09 0)
(1.49841 -1.67699e-09 0)
(1.49841 -1.5428e-09 0)
(1.49841 -1.5359e-09 0)
(1.49841 -1.55588e-09 0)
(1.49841 -1.59219e-09 0)
(1.49841 -1.66296e-09 0)
(1.49841 -1.69892e-09 0)
(1.49841 -1.77968e-09 0)
(1.49841 -1.8005e-09 0)
(1.49841 -1.90393e-09 0)
(1.49842 -1.8942e-09 0)
(1.49842 -1.88823e-09 0)
(1.49842 -1.99979e-09 0)
(1.49842 -1.84075e-09 0)
(1.49842 -1.88797e-09 0)
(1.49842 -1.83687e-09 0)
(1.49842 -1.85126e-09 0)
(1.49842 -1.78932e-09 0)
(1.49842 -1.77763e-09 0)
(1.49842 -1.74027e-09 0)
(1.49842 -1.7475e-09 0)
(1.49842 -1.66042e-09 0)
(1.49842 -1.67261e-09 0)
(1.49842 -1.61282e-09 0)
(1.49842 -1.62884e-09 0)
(1.49842 -1.51839e-09 0)
(1.49842 -1.5615e-09 0)
(1.49842 -1.52441e-09 0)
(1.49842 -1.47625e-09 0)
(1.49842 -1.46178e-09 0)
(1.49842 -1.41766e-09 0)
(1.49842 -1.36388e-09 0)
(1.49842 -1.39175e-09 0)
(1.49842 -1.35928e-09 0)
(1.49842 -1.32448e-09 0)
(1.49842 -1.31101e-09 0)
(1.49842 -1.27502e-09 0)
(1.49842 -1.30417e-09 0)
(1.49842 -1.25454e-09 0)
(1.49842 -1.19807e-09 0)
(1.49842 -1.20903e-09 0)
(1.49842 -1.14776e-09 0)
(1.49842 -1.15577e-09 0)
(1.49842 -1.14216e-09 0)
(1.49842 -1.13832e-09 0)
(1.49842 -1.08867e-09 0)
(1.49842 -1.08614e-09 0)
(1.49842 -1.08442e-09 0)
(1.49842 -1.03378e-09 0)
(1.49842 -1.04171e-09 0)
(1.49842 -9.58908e-10 0)
(1.49842 -1.00449e-09 0)
(1.49842 -8.42448e-10 0)
(1.49842 -8.13463e-10 0)
(1.49842 -6.55319e-10 0)
(1.49842 -5.04727e-10 0)
(1.49842 -1.61649e-10 0)
(1.00001 -0.000165028 0)
(1.00006 -0.000496282 0)
(1.00017 -0.00082889 0)
(1.00035 -0.00116233 0)
(1.00059 -0.00149611 0)
(1.00089 -0.00182973 0)
(1.00125 -0.00216271 0)
(1.00167 -0.00249454 0)
(1.00215 -0.00282472 0)
(1.00269 -0.00315276 0)
(1.0033 -0.00347815 0)
(1.00397 -0.00380041 0)
(1.00469 -0.00411907 0)
(1.00548 -0.00443365 0)
(1.00633 -0.0047437 0)
(1.00725 -0.00504877 0)
(1.00822 -0.00534846 0)
(1.00925 -0.00564234 0)
(1.01033 -0.00593005 0)
(1.01148 -0.00621121 0)
(1.01268 -0.00648549 0)
(1.01394 -0.00675257 0)
(1.01525 -0.00701217 0)
(1.01662 -0.00726402 0)
(1.01804 -0.00750788 0)
(1.01951 -0.00774354 0)
(1.02103 -0.00797082 0)
(1.0226 -0.00818957 0)
(1.02422 -0.00839965 0)
(1.02588 -0.00860096 0)
(1.02758 -0.00879342 0)
(1.02933 -0.00897699 0)
(1.03113 -0.00915163 0)
(1.03296 -0.00931735 0)
(1.03483 -0.00947417 0)
(1.03673 -0.00962212 0)
(1.03868 -0.00976128 0)
(1.04065 -0.00989172 0)
(1.04266 -0.0100135 0)
(1.0447 -0.0101269 0)
(1.04677 -0.0102319 0)
(1.04887 -0.0103286 0)
(1.05099 -0.0104174 0)
(1.05314 -0.0104982 0)
(1.05531 -0.0105714 0)
(1.0575 -0.0106371 0)
(1.05972 -0.0106955 0)
(1.06195 -0.0107469 0)
(1.0642 -0.0107914 0)
(1.06647 -0.0108293 0)
(1.06876 -0.0108608 0)
(1.07106 -0.0108861 0)
(1.07337 -0.0109054 0)
(1.07569 -0.0109191 0)
(1.07802 -0.0109273 0)
(1.08037 -0.0109302 0)
(1.08272 -0.0109281 0)
(1.08508 -0.0109213 0)
(1.08745 -0.0109099 0)
(1.08982 -0.0108941 0)
(1.0922 -0.0108742 0)
(1.09458 -0.0108505 0)
(1.09696 -0.010823 0)
(1.09935 -0.0107921 0)
(1.10174 -0.0107578 0)
(1.10413 -0.0107205 0)
(1.10651 -0.0106803 0)
(1.1089 -0.0106374 0)
(1.11129 -0.0105919 0)
(1.11368 -0.010544 0)
(1.11606 -0.010494 0)
(1.11844 -0.0104419 0)
(1.12082 -0.0103879 0)
(1.1232 -0.0103322 0)
(1.12557 -0.0102749 0)
(1.12793 -0.0102161 0)
(1.13029 -0.010156 0)
(1.13265 -0.0100947 0)
(1.135 -0.0100323 0)
(1.13734 -0.00996888 0)
(1.13968 -0.0099046 0)
(1.14201 -0.00983955 0)
(1.14434 -0.00977381 0)
(1.14665 -0.00970749 0)
(1.14896 -0.00964066 0)
(1.15127 -0.00957341 0)
(1.15356 -0.00950581 0)
(1.15585 -0.00943793 0)
(1.15813 -0.00936983 0)
(1.1604 -0.00930159 0)
(1.16266 -0.00923326 0)
(1.16492 -0.00916489 0)
(1.16716 -0.00909653 0)
(1.1694 -0.00902823 0)
(1.17163 -0.00896004 0)
(1.17385 -0.00889199 0)
(1.17606 -0.00882412 0)
(1.17826 -0.00875647 0)
(1.18046 -0.00868906 0)
(1.18264 -0.00862192 0)
(1.18482 -0.00855508 0)
(1.18698 -0.00848857 0)
(1.18914 -0.0084224 0)
(1.19129 -0.00835659 0)
(1.19343 -0.00829116 0)
(1.19556 -0.00822613 0)
(1.19768 -0.0081615 0)
(1.19979 -0.00809729 0)
(1.2019 -0.00803351 0)
(1.20399 -0.00797016 0)
(1.20608 -0.00790725 0)
(1.20815 -0.00784479 0)
(1.21022 -0.00778279 0)
(1.21228 -0.00772124 0)
(1.21432 -0.00766014 0)
(1.21636 -0.0075995 0)
(1.21839 -0.00753932 0)
(1.22042 -0.00747959 0)
(1.22243 -0.00742032 0)
(1.22443 -0.0073615 0)
(1.22643 -0.00730314 0)
(1.22841 -0.00724521 0)
(1.23039 -0.00718774 0)
(1.23236 -0.00713069 0)
(1.23432 -0.00707409 0)
(1.23627 -0.00701791 0)
(1.23821 -0.00696215 0)
(1.24014 -0.00690681 0)
(1.24207 -0.00685188 0)
(1.24398 -0.00679735 0)
(1.24589 -0.00674322 0)
(1.24779 -0.00668949 0)
(1.24968 -0.00663614 0)
(1.25156 -0.00658317 0)
(1.25343 -0.00653057 0)
(1.25529 -0.00647833 0)
(1.25715 -0.00642646 0)
(1.259 -0.00637494 0)
(1.26083 -0.00632376 0)
(1.26266 -0.00627292 0)
(1.26448 -0.00622242 0)
(1.2663 -0.00617224 0)
(1.2681 -0.00612239 0)
(1.2699 -0.00607285 0)
(1.27168 -0.00602361 0)
(1.27346 -0.00597468 0)
(1.27523 -0.00592605 0)
(1.277 -0.00587771 0)
(1.27875 -0.00582965 0)
(1.28049 -0.00578188 0)
(1.28223 -0.00573438 0)
(1.28396 -0.00568716 0)
(1.28568 -0.0056402 0)
(1.28739 -0.00559351 0)
(1.28909 -0.00554707 0)
(1.29079 -0.00550089 0)
(1.29248 -0.00545497 0)
(1.29416 -0.00540928 0)
(1.29583 -0.00536385 0)
(1.29749 -0.00531865 0)
(1.29914 -0.00527369 0)
(1.30079 -0.00522896 0)
(1.30242 -0.00518447 0)
(1.30405 -0.00514021 0)
(1.30567 -0.00509617 0)
(1.30728 -0.00505236 0)
(1.30889 -0.00500877 0)
(1.31048 -0.0049654 0)
(1.31207 -0.00492225 0)
(1.31365 -0.00487932 0)
(1.31522 -0.00483661 0)
(1.31678 -0.00479411 0)
(1.31833 -0.00475182 0)
(1.31988 -0.00470974 0)
(1.32141 -0.00466788 0)
(1.32294 -0.00462623 0)
(1.32446 -0.00458478 0)
(1.32597 -0.00454355 0)
(1.32748 -0.00450253 0)
(1.32897 -0.00446171 0)
(1.33046 -0.0044211 0)
(1.33194 -0.0043807 0)
(1.33341 -0.0043405 0)
(1.33487 -0.00430052 0)
(1.33632 -0.00426074 0)
(1.33777 -0.00422116 0)
(1.3392 -0.0041818 0)
(1.34063 -0.00414264 0)
(1.34205 -0.00410369 0)
(1.34346 -0.00406495 0)
(1.34486 -0.00402641 0)
(1.34626 -0.00398809 0)
(1.34765 -0.00394997 0)
(1.34902 -0.00391206 0)
(1.35039 -0.00387437 0)
(1.35175 -0.00383688 0)
(1.35311 -0.0037996 0)
(1.35445 -0.00376254 0)
(1.35579 -0.00372568 0)
(1.35712 -0.00368904 0)
(1.35844 -0.00365261 0)
(1.35975 -0.0036164 0)
(1.36105 -0.00358039 0)
(1.36235 -0.0035446 0)
(1.36363 -0.00350903 0)
(1.36491 -0.00347367 0)
(1.36618 -0.00343853 0)
(1.36744 -0.0034036 0)
(1.36869 -0.00336889 0)
(1.36994 -0.0033344 0)
(1.37118 -0.00330012 0)
(1.3724 -0.00326606 0)
(1.37362 -0.00323222 0)
(1.37484 -0.0031986 0)
(1.37604 -0.0031652 0)
(1.37724 -0.00313202 0)
(1.37842 -0.00309906 0)
(1.3796 -0.00306632 0)
(1.38077 -0.0030338 0)
(1.38194 -0.0030015 0)
(1.38309 -0.00296942 0)
(1.38424 -0.00293756 0)
(1.38538 -0.00290593 0)
(1.38651 -0.00287451 0)
(1.38763 -0.00284332 0)
(1.38874 -0.00281235 0)
(1.38985 -0.0027816 0)
(1.39095 -0.00275107 0)
(1.39204 -0.00272077 0)
(1.39312 -0.00269069 0)
(1.39419 -0.00266083 0)
(1.39526 -0.00263119 0)
(1.39632 -0.00260177 0)
(1.39737 -0.00257258 0)
(1.39841 -0.00254361 0)
(1.39944 -0.00251486 0)
(1.40047 -0.00248633 0)
(1.40149 -0.00245802 0)
(1.4025 -0.00242993 0)
(1.4035 -0.00240207 0)
(1.4045 -0.00237442 0)
(1.40548 -0.00234699 0)
(1.40646 -0.00231979 0)
(1.40743 -0.0022928 0)
(1.4084 -0.00226603 0)
(1.40935 -0.00223948 0)
(1.4103 -0.00221315 0)
(1.41124 -0.00218704 0)
(1.41218 -0.00216114 0)
(1.4131 -0.00213546 0)
(1.41402 -0.00210999 0)
(1.41493 -0.00208474 0)
(1.41584 -0.00205971 0)
(1.41673 -0.00203489 0)
(1.41762 -0.00201028 0)
(1.4185 -0.00198589 0)
(1.41937 -0.00196171 0)
(1.42024 -0.00193774 0)
(1.4211 -0.00191398 0)
(1.42195 -0.00189043 0)
(1.42279 -0.00186709 0)
(1.42363 -0.00184396 0)
(1.42446 -0.00182104 0)
(1.42528 -0.00179832 0)
(1.4261 -0.00177581 0)
(1.42691 -0.00175351 0)
(1.42771 -0.00173141 0)
(1.4285 -0.00170951 0)
(1.42929 -0.00168782 0)
(1.43007 -0.00166633 0)
(1.43084 -0.00164504 0)
(1.43161 -0.00162395 0)
(1.43237 -0.00160306 0)
(1.43312 -0.00158237 0)
(1.43386 -0.00156188 0)
(1.4346 -0.00154158 0)
(1.43533 -0.00152148 0)
(1.43606 -0.00150157 0)
(1.43677 -0.00148186 0)
(1.43748 -0.00146234 0)
(1.43819 -0.00144301 0)
(1.43889 -0.00142387 0)
(1.43958 -0.00140492 0)
(1.44026 -0.00138616 0)
(1.44094 -0.00136759 0)
(1.44161 -0.00134921 0)
(1.44228 -0.00133101 0)
(1.44293 -0.00131299 0)
(1.44359 -0.00129516 0)
(1.44423 -0.00127751 0)
(1.44487 -0.00126004 0)
(1.4455 -0.00124275 0)
(1.44613 -0.00122565 0)
(1.44675 -0.00120872 0)
(1.44736 -0.00119196 0)
(1.44797 -0.00117539 0)
(1.44857 -0.00115898 0)
(1.44917 -0.00114276 0)
(1.44976 -0.0011267 0)
(1.45034 -0.00111082 0)
(1.45092 -0.0010951 0)
(1.45149 -0.00107956 0)
(1.45206 -0.00106419 0)
(1.45262 -0.00104898 0)
(1.45317 -0.00103394 0)
(1.45372 -0.00101906 0)
(1.45426 -0.00100435 0)
(1.4548 -0.000989798 0)
(1.45533 -0.00097541 0)
(1.45585 -0.000961182 0)
(1.45637 -0.000947114 0)
(1.45688 -0.000933204 0)
(1.45739 -0.000919452 0)
(1.45789 -0.000905856 0)
(1.45839 -0.000892415 0)
(1.45888 -0.000879128 0)
(1.45937 -0.000865993 0)
(1.45985 -0.000853011 0)
(1.46032 -0.000840179 0)
(1.46079 -0.000827496 0)
(1.46125 -0.000814962 0)
(1.46171 -0.000802575 0)
(1.46217 -0.000790334 0)
(1.46262 -0.000778238 0)
(1.46306 -0.000766286 0)
(1.4635 -0.000754476 0)
(1.46393 -0.000742809 0)
(1.46436 -0.000731282 0)
(1.46478 -0.000719894 0)
(1.4652 -0.000708645 0)
(1.46561 -0.000697533 0)
(1.46602 -0.000686557 0)
(1.46642 -0.000675716 0)
(1.46682 -0.000665009 0)
(1.46722 -0.000654436 0)
(1.4676 -0.000643993 0)
(1.46799 -0.000633682 0)
(1.46837 -0.0006235 0)
(1.46874 -0.000613446 0)
(1.46911 -0.000603521 0)
(1.46948 -0.000593721 0)
(1.46984 -0.000584046 0)
(1.47019 -0.000574496 0)
(1.47055 -0.000565069 0)
(1.47089 -0.000555764 0)
(1.47124 -0.00054658 0)
(1.47158 -0.000537516 0)
(1.47191 -0.00052857 0)
(1.47224 -0.000519743 0)
(1.47257 -0.000511032 0)
(1.47289 -0.000502437 0)
(1.4732 -0.000493956 0)
(1.47352 -0.000485589 0)
(1.47383 -0.000477334 0)
(1.47413 -0.000469191 0)
(1.47443 -0.000461159 0)
(1.47473 -0.000453236 0)
(1.47502 -0.000445421 0)
(1.47531 -0.000437714 0)
(1.4756 -0.000430113 0)
(1.47588 -0.000422617 0)
(1.47615 -0.000415226 0)
(1.47643 -0.000407938 0)
(1.4767 -0.000400752 0)
(1.47696 -0.000393667 0)
(1.47723 -0.000386683 0)
(1.47748 -0.000379798 0)
(1.47774 -0.000373011 0)
(1.47799 -0.000366322 0)
(1.47824 -0.000359729 0)
(1.47848 -0.000353232 0)
(1.47872 -0.000346828 0)
(1.47896 -0.000340519 0)
(1.47919 -0.000334301 0)
(1.47943 -0.000328175 0)
(1.47965 -0.00032214 0)
(1.47988 -0.000316194 0)
(1.4801 -0.000310337 0)
(1.48031 -0.000304568 0)
(1.48053 -0.000298885 0)
(1.48074 -0.000293288 0)
(1.48095 -0.000287776 0)
(1.48115 -0.000282348 0)
(1.48135 -0.000277003 0)
(1.48155 -0.00027174 0)
(1.48175 -0.000266558 0)
(1.48194 -0.000261457 0)
(1.48213 -0.000256435 0)
(1.48231 -0.000251491 0)
(1.4825 -0.000246625 0)
(1.48268 -0.000241836 0)
(1.48286 -0.000237123 0)
(1.48303 -0.000232484 0)
(1.4832 -0.00022792 0)
(1.48337 -0.000223429 0)
(1.48354 -0.00021901 0)
(1.48371 -0.000214663 0)
(1.48387 -0.000210386 0)
(1.48403 -0.000206179 0)
(1.48418 -0.000202042 0)
(1.48434 -0.000197972 0)
(1.48449 -0.000193969 0)
(1.48464 -0.000190034 0)
(1.48478 -0.000186163 0)
(1.48493 -0.000182358 0)
(1.48507 -0.000178616 0)
(1.48521 -0.000174938 0)
(1.48534 -0.000171322 0)
(1.48548 -0.000167768 0)
(1.48561 -0.000164275 0)
(1.48574 -0.000160842 0)
(1.48587 -0.000157467 0)
(1.48599 -0.000154152 0)
(1.48612 -0.000150894 0)
(1.48624 -0.000147693 0)
(1.48636 -0.000144548 0)
(1.48647 -0.000141459 0)
(1.48659 -0.000138424 0)
(1.4867 -0.000135443 0)
(1.48681 -0.000132516 0)
(1.48692 -0.00012964 0)
(1.48703 -0.000126817 0)
(1.48713 -0.000124044 0)
(1.48724 -0.000121321 0)
(1.48734 -0.000118648 0)
(1.48744 -0.000116024 0)
(1.48753 -0.000113448 0)
(1.48763 -0.000110919 0)
(1.48772 -0.000108436 0)
(1.48782 -0.000105999 0)
(1.48791 -0.000103608 0)
(1.488 -0.00010126 0)
(1.48808 -9.89567e-05 0)
(1.48817 -9.6696e-05 0)
(1.48825 -9.44774e-05 0)
(1.48833 -9.23002e-05 0)
(1.48841 -9.01637e-05 0)
(1.48849 -8.80672e-05 0)
(1.48857 -8.60099e-05 0)
(1.48865 -8.39911e-05 0)
(1.48872 -8.201e-05 0)
(1.48879 -8.00658e-05 0)
(1.48887 -7.8158e-05 0)
(1.48894 -7.62856e-05 0)
(1.48901 -7.44478e-05 0)
(1.48907 -7.2644e-05 0)
(1.48914 -7.08733e-05 0)
(1.4892 -6.9135e-05 0)
(1.48927 -6.74283e-05 0)
(1.48933 -6.57525e-05 0)
(1.48939 -6.41066e-05 0)
(1.48945 -6.24899e-05 0)
(1.48951 -6.09017e-05 0)
(1.48956 -5.93411e-05 0)
(1.48962 -5.78074e-05 0)
(1.48967 -5.62997e-05 0)
(1.48972 -5.48172e-05 0)
(1.48978 -5.33593e-05 0)
(1.48983 -5.19251e-05 0)
(1.48988 -5.05139e-05 0)
(1.48992 -4.9125e-05 0)
(1.48997 -4.77576e-05 0)
(1.49002 -4.64111e-05 0)
(1.49006 -4.50847e-05 0)
(1.49011 -4.37778e-05 0)
(1.49015 -4.24897e-05 0)
(1.49019 -4.12199e-05 0)
(1.49023 -3.99677e-05 0)
(1.49027 -3.87328e-05 0)
(1.49031 -3.75147e-05 0)
(1.49035 -3.6313e-05 0)
(1.49038 -3.51271e-05 0)
(1.49042 -3.39569e-05 0)
(1.49045 -3.28022e-05 0)
(1.49048 -3.16628e-05 0)
(1.49052 -3.05383e-05 0)
(1.49055 -2.94289e-05 0)
(1.49058 -2.83344e-05 0)
(1.4906 -2.7255e-05 0)
(1.49063 -2.61908e-05 0)
(1.49066 -2.51419e-05 0)
(1.49069 -2.41085e-05 0)
(1.49071 -2.30911e-05 0)
(1.49073 -2.209e-05 0)
(1.49076 -2.11055e-05 0)
(1.49078 -2.01383e-05 0)
(1.4908 -1.91889e-05 0)
(1.49082 -1.82579e-05 0)
(1.49084 -1.73458e-05 0)
(1.49086 -1.64533e-05 0)
(1.49087 -1.5581e-05 0)
(1.49089 -1.47298e-05 0)
(1.49091 -1.39001e-05 0)
(1.49092 -1.30928e-05 0)
(1.49094 -1.23084e-05 0)
(1.49095 -1.15477e-05 0)
(1.49096 -1.08113e-05 0)
(1.49097 -1.00998e-05 0)
(1.49098 -9.41374e-06 0)
(1.49099 -8.75358e-06 0)
(1.491 -8.11987e-06 0)
(1.49101 -7.51291e-06 0)
(1.49102 -6.93292e-06 0)
(1.49103 -6.38011e-06 0)
(1.49103 -5.8547e-06 0)
(1.49104 -5.3567e-06 0)
(1.49105 -4.88596e-06 0)
(1.49105 -4.44227e-06 0)
(1.49106 -4.02548e-06 0)
(1.49106 -3.63522e-06 0)
(1.49107 -3.27102e-06 0)
(1.49107 -2.93224e-06 0)
(1.49107 -2.61831e-06 0)
(1.49108 -2.32846e-06 0)
(1.49108 -2.06198e-06 0)
(1.49108 -1.81792e-06 0)
(1.49108 -1.59524e-06 0)
(1.49108 -1.39317e-06 0)
(1.49109 -1.21054e-06 0)
(1.49109 -1.04626e-06 0)
(1.49109 -8.99235e-07 0)
(1.49109 -7.6836e-07 0)
(1.49109 -6.525e-07 0)
(1.49109 -5.50471e-07 0)
(1.49109 -4.61222e-07 0)
(1.49109 -3.83663e-07 0)
(1.49109 -3.16706e-07 0)
(1.49109 -2.59272e-07 0)
(1.49109 -2.10407e-07 0)
(1.49109 -1.69187e-07 0)
(1.49109 -1.34729e-07 0)
(1.49109 -1.06208e-07 0)
(1.49109 -8.28187e-08 0)
(1.49109 -6.38665e-08 0)
(1.49109 -4.86996e-08 0)
(1.49109 -3.66755e-08 0)
(1.49109 -2.73815e-08 0)
(1.49109 -2.02563e-08 0)
(1.49109 -1.49527e-08 0)
(1.49109 -1.11011e-08 0)
(1.49109 -8.40689e-09 0)
(1.49109 -6.59667e-09 0)
(1.49109 -5.43159e-09 0)
(1.49109 -4.73347e-09 0)
(1.49109 -4.42432e-09 0)
(1.49109 -4.37113e-09 0)
(1.49109 -4.44247e-09 0)
(1.49109 -4.53503e-09 0)
(1.49109 -4.71905e-09 0)
(1.49109 -4.94206e-09 0)
(1.49109 -5.12424e-09 0)
(1.49109 -5.22249e-09 0)
(1.49109 -5.39285e-09 0)
(1.49109 -5.44222e-09 0)
(1.49109 -5.47942e-09 0)
(1.49109 -5.50514e-09 0)
(1.49109 -5.41411e-09 0)
(1.49109 -5.38693e-09 0)
(1.49109 -5.33575e-09 0)
(1.49109 -5.28299e-09 0)
(1.49109 -5.15868e-09 0)
(1.49109 -5.10015e-09 0)
(1.49109 -5.01966e-09 0)
(1.49109 -4.91652e-09 0)
(1.49109 -4.79091e-09 0)
(1.49109 -4.74386e-09 0)
(1.49109 -4.69368e-09 0)
(1.49109 -4.62253e-09 0)
(1.49109 -4.50713e-09 0)
(1.49109 -4.45358e-09 0)
(1.49109 -4.39659e-09 0)
(1.49109 -4.28034e-09 0)
(1.49109 -4.22709e-09 0)
(1.49109 -4.16334e-09 0)
(1.49109 -4.09385e-09 0)
(1.49109 -4.0362e-09 0)
(1.49109 -3.95603e-09 0)
(1.49109 -3.92609e-09 0)
(1.49109 -3.87564e-09 0)
(1.49109 -3.76933e-09 0)
(1.49109 -3.70808e-09 0)
(1.49109 -3.6289e-09 0)
(1.49109 -3.55815e-09 0)
(1.49109 -3.5064e-09 0)
(1.49109 -3.4495e-09 0)
(1.49109 -3.40117e-09 0)
(1.49109 -3.3303e-09 0)
(1.49109 -3.28479e-09 0)
(1.49109 -3.22364e-09 0)
(1.49109 -3.22155e-09 0)
(1.49109 -3.13914e-09 0)
(1.49109 -3.08412e-09 0)
(1.49109 -3.01018e-09 0)
(1.49109 -2.89203e-09 0)
(1.49109 -2.76374e-09 0)
(1.49109 -2.51176e-09 0)
(1.49109 -2.29791e-09 0)
(1.49109 -1.8082e-09 0)
(1.49109 -1.50097e-09 0)
(1.49109 -5.92023e-10 0)
(1.00001 -0.000273701 0)
(1.00006 -0.000823101 0)
(1.00018 -0.00137475 0)
(1.00037 -0.00192775 0)